version 2
run General-0-20150612-19:13:56-488
attr D lce
attr F spr
attr R lru
attr a 1
attr configname General
attr datetime 20150612-19:13:56
attr experiment General
attr inifile omnetpp.ini
attr iterationvars "$net=abilene, $rep=0, $a=1, $F=spr, $ttl=1000, $D=lce, $R=lru, $window=60, $variance=0.05, $mytime=1800"
attr iterationvars2 "$net=abilene, $rep=0, $a=1, $F=spr, $ttl=1000, $D=lce, $R=lru, $window=60, $variance=0.05, $mytime=1800, $repetition=0"
attr measurement "$net=abilene, $rep=0, $a=1, $F=spr, $ttl=1000, $D=lce, $R=lru, $window=60, $variance=0.05, $mytime=1800"
attr mytime 1800
attr net abilene
attr network networks.${net=abilene}_network
attr processid 488
attr rep 0
attr repetition 0
attr replication #0
attr resultdir results
attr runnumber 0
attr seedset 0
attr ttl 1000
attr variance 0.05
attr window 60

vector 0  abilene_network.node[0].content_store  hit_node[0]  ETV
0	14547955	1	0.7495178197065
0	14547955	2	0.51462865716429
0	14547955	3	0.38274086170079
0	14547955	4	0.30910569105691
0	14547955	5	0.25864538571721
0	14547955	6	0.21641607098842
0	14547955	7	0.19551282051282
0	14547955	8	0.17196386751422
0	14547955	9	0.15737580583997
0	14547955	10	0.14369995785925
0	14547955	11	0.11994547932758
0	14547955	12	0.12731829573935
0	14547955	13	0.12023617820719
0	14547955	14	0.1125
0	14547955	15	0.094441123729827
0	14547955	16	0.093575418994413
0	14547955	17	0.08904593639576
0	14547955	18	0.080800593031875
0	14547955	19	0.0814696485623
0	14547955	20	0.060131795716639
0	14547955	21	0.068872987477639
0	14547955	22	0.070460704607046
0	14547955	23	0.062923523717328
0	14547955	24	0.062068965517241
0	14547955	25	0.055276381909548
vector 1  abilene_network.node[1].content_store  hit_node[1]  ETV
1	14547955	1	0.4933321557891
1	14547955	2	0.35013298471803
1	14547955	3	0.270337773549
1	14547955	4	0.23400115307005
1	14547955	5	0.19444926279271
1	14547955	6	0.16774193548387
1	14547955	7	0.15303911506443
1	14547955	8	0.132309281012
1	14547955	9	0.12795729948067
1	14547955	10	0.11576163062082
1	14547955	11	0.10260389722366
1	14547955	12	0.097780223812145
1	14547955	13	0.094073190135243
1	14547955	14	0.078834618680377
1	14547955	15	0.07244094488189
1	14547955	16	0.073349633251834
1	14547955	17	0.068527918781726
1	14547955	18	0.06390977443609
1	14547955	19	0.063428571428571
1	14547955	20	0.054646405610754
1	14547955	21	0.053869969040248
1	14547955	22	0.055869428750785
1	14547955	23	0.055385660890248
1	14547955	24	0.050285306704708
1	14547955	25	0.04910394265233
vector 2  abilene_network.node[2].content_store  hit_node[2]  ETV
2	14547955	1	0.41971987022236
2	14547955	2	0.26133300153457
2	14547955	3	0.19300594441172
2	14547955	4	0.15345765345765
2	14547955	5	0.12927214001352
2	14547955	6	0.11404262633207
2	14547955	7	0.097092068399188
2	14547955	8	0.087528295785275
2	14547955	9	0.080405002977963
2	14547955	10	0.067687556299061
2	14547955	11	0.069951422623178
2	14547955	12	0.062210258710932
2	14547955	13	0.058671824629271
2	14547955	14	0.049778383907262
2	14547955	15	0.0538911540507
2	14547955	16	0.051538461538462
2	14547955	17	0.040828640386163
2	14547955	18	0.040531846450783
2	14547955	19	0.045011086474501
2	14547955	20	0.035689455388181
2	14547955	21	0.035939776590578
2	14547955	22	0.038577154308617
2	14547955	23	0.030367607884923
2	14547955	24	0.03494771601541
2	14547955	25	0.031108597285068
vector 3  abilene_network.node[3].content_store  hit_node[3]  ETV
3	14547955	1	0.37091011658518
3	14547955	2	0.23359919522886
3	14547955	3	0.1676165088703
3	14547955	4	0.13673525377229
3	14547955	5	0.11021814006889
3	14547955	6	0.095101071865333
3	14547955	7	0.081359755115193
3	14547955	8	0.072940965368742
3	14547955	9	0.066112469437653
3	14547955	10	0.05958795562599
3	14547955	11	0.056803779237239
3	14547955	12	0.052164261931188
3	14547955	13	0.048680196312508
3	14547955	14	0.038999576091564
3	14547955	15	0.040974044911053
3	14547955	16	0.034090909090909
3	14547955	17	0.034307288246881
3	14547955	18	0.036098576883027
3	14547955	19	0.031031950055086
3	14547955	20	0.028425241614554
3	14547955	21	0.028055719050422
3	14547955	22	0.028305785123967
3	14547955	23	0.02397926117952
3	14547955	24	0.02676563202879
3	14547955	25	0.024356617647059
vector 4  abilene_network.node[4].content_store  hit_node[4]  ETV
4	14547955	1	0.33278980136377
4	14547955	2	0.20687037388499
4	14547955	3	0.149662027833
4	14547955	4	0.11694046149463
4	14547955	5	0.099305249228055
4	14547955	6	0.082776540460282
4	14547955	7	0.070198401763571
4	14547955	8	0.065030113593047
4	14547955	9	0.054807129110535
4	14547955	10	0.047910662824207
4	14547955	11	0.048906677079266
4	14547955	12	0.041736053288926
4	14547955	13	0.039419318816304
4	14547955	14	0.039253003449506
4	14547955	15	0.035876643322275
4	14547955	16	0.034998664173123
4	14547955	17	0.032271468144044
4	14547955	18	0.027431421446384
4	14547955	19	0.026791181873852
4	14547955	20	0.024596709790768
4	14547955	21	0.027419887677569
4	14547955	22	0.026478679504814
4	14547955	23	0.025158371040724
4	14547955	24	0.022890654559213
4	14547955	25	0.018529354398284
vector 5  abilene_network.node[5].content_store  hit_node[5]  ETV
5	14547955	1	0.33259155203828
5	14547955	2	0.2365051706504
5	14547955	3	0.18733131877004
5	14547955	4	0.157750047166
5	14547955	5	0.13738306176817
5	14547955	6	0.1208722741433
5	14547955	7	0.10779334835236
5	14547955	8	0.097368642995699
5	14547955	9	0.09022799796513
5	14547955	10	0.083470047228436
5	14547955	11	0.077030511388053
5	14547955	12	0.07221269296741
5	14547955	13	0.070447469629449
5	14547955	14	0.059925582609831
5	14547955	15	0.061594693380263
5	14547955	16	0.054548102833006
5	14547955	17	0.053079847908745
5	14547955	18	0.051257253384913
5	14547955	19	0.045147679324895
5	14547955	20	0.049748656612931
5	14547955	21	0.043910900127807
5	14547955	22	0.042146322899819
5	14547955	23	0.042036708111308
5	14547955	24	0.039129982308253
5	14547955	25	0.037931402927663
vector 6  abilene_network.node[6].content_store  hit_node[6]  ETV
6	14547955	1	0.4516565419368
6	14547955	2	0.28444074646381
6	14547955	3	0.21145306997397
6	14547955	4	0.15930854371347
6	14547955	5	0.13509180996794
6	14547955	6	0.11305439330544
6	14547955	7	0.096206088992974
6	14547955	8	0.083246182806944
6	14547955	9	0.077782952957615
6	14547955	10	0.068093140339836
6	14547955	11	0.064581367129567
6	14547955	12	0.057568673290473
6	14547955	13	0.056083502103131
6	14547955	14	0.047643012917296
6	14547955	15	0.050409907552765
6	14547955	16	0.044674835061263
6	14547955	17	0.042401426590053
6	14547955	18	0.046079053054323
6	14547955	19	0.039067702552719
6	14547955	20	0.030247056107135
6	14547955	21	0.037919299951386
6	14547955	22	0.024628014366342
6	14547955	23	0.031097404266255
6	14547955	24	0.032533774469258
6	14547955	25	0.029778786159955
vector 7  abilene_network.node[7].content_store  hit_node[7]  ETV
7	14547955	1	0.49970765362802
7	14547955	2	0.32667671439337
7	14547955	3	0.23989218328841
7	14547955	4	0.19121048573631
7	14547955	5	0.15841946400805
7	14547955	6	0.14073602715028
7	14547955	7	0.11428228804413
7	14547955	8	0.10941846602199
7	14547955	9	0.091157288032762
7	14547955	10	0.088949217502395
7	14547955	11	0.08403942590351
7	14547955	12	0.075552255429738
7	14547955	13	0.066204929720921
7	14547955	14	0.064937894966224
7	14547955	15	0.056449784629336
7	14547955	16	0.056127450980392
7	14547955	17	0.050629658185556
7	14547955	18	0.055170501802052
7	14547955	19	0.047161572052402
7	14547955	20	0.044337926902337
7	14547955	21	0.048116492560937
7	14547955	22	0.042979002624672
7	14547955	23	0.039768864717879
7	14547955	24	0.038601602330663
7	14547955	25	0.036693847294292
vector 8  abilene_network.node[8].content_store  hit_node[8]  ETV
8	14547955	1	0.58288400387115
8	14547955	2	0.39526411657559
8	14547955	3	0.30270746555591
8	14547955	4	0.23931104356636
8	14547955	5	0.19985295919618
8	14547955	6	0.17859195402299
8	14547955	7	0.1477291632008
8	14547955	8	0.13829394387001
8	14547955	9	0.12381354144695
8	14547955	10	0.10359550561798
8	14547955	11	0.093269473153517
8	14547955	12	0.092859011247711
8	14547955	13	0.087347649448636
8	14547955	14	0.081435257410296
8	14547955	15	0.07372523546606
8	14547955	16	0.075102880658436
8	14547955	17	0.078618662747979
8	14547955	18	0.055845721173162
8	14547955	19	0.065058164584231
8	14547955	20	0.066147859922179
8	14547955	21	0.066938037087291
8	14547955	22	0.058740601503759
8	14547955	23	0.063204311611955
8	14547955	24	0.055036344755971
8	14547955	25	0.047933884297521
vector 9  abilene_network.node[9].content_store  hit_node[9]  ETV
9	14547955	1	0.74516798009125
9	14547955	2	0.50542802685009
9	14547955	3	0.38262822912767
9	14547955	4	0.30727000499085
9	14547955	5	0.25228286260353
9	14547955	6	0.22325464590658
9	14547955	7	0.19548651817116
9	14547955	8	0.17107811491285
9	14547955	9	0.16223113379511
9	14547955	10	0.14334038054968
9	14547955	11	0.12333179935573
9	14547955	12	0.10749027237354
9	14547955	13	0.10335641981886
9	14547955	14	0.10961214165261
9	14547955	15	0.094430992736077
9	14547955	16	0.098371335504886
9	14547955	17	0.086383601756955
9	14547955	18	0.070714834742506
9	14547955	19	0.065520065520066
9	14547955	20	0.05922165820643
9	14547955	21	0.0680393912265
9	14547955	22	0.069406392694064
9	14547955	23	0.057171514543631
9	14547955	24	0.066468253968254
9	14547955	25	0.055614973262032
vector 10  abilene_network.node[10].content_store  hit_node[10]  ETV
10	14547955	1	0.74870704037371
10	14547955	2	0.51225817211474
10	14547955	3	0.38832743810005
10	14547955	4	0.30802315963606
10	14547955	5	0.25197999166319
10	14547955	6	0.22415057443168
10	14547955	7	0.19108092144123
10	14547955	8	0.17010652463382
10	14547955	9	0.152734375
10	14547955	10	0.14645214521452
10	14547955	11	0.13878676470588
10	14547955	12	0.11019989748847
10	14547955	13	0.10331905781585
10	14547955	14	0.10941906373378
10	14547955	15	0.10280373831776
10	14547955	16	0.096688741721854
10	14547955	17	0.082058414464534
10	14547955	18	0.078041315990819
10	14547955	19	0.070715474209651
10	14547955	20	0.061106523534269
10	14547955	21	0.070472792149866
10	14547955	22	0.066901408450704
10	14547955	23	0.062792877225867
10	14547955	24	0.062686567164179
10	14547955	25	0.048387096774194
vector 11  abilene_network.client[0]  hdistance[0]  ETV
11	14547955	1	0.57104498635443
11	14547955	2	1.6141019955654
11	14547955	3	2.4281727574751
11	14547955	4	2.9659208261618
11	14547955	5	3.3097287989669
11	14547955	6	3.6473305954825
11	14547955	7	3.9151570048309
11	14547955	8	4.1179327089837
11	14547955	9	4.2490211433046
11	14547955	10	4.4343302990897
11	14547955	11	4.6038443506798
11	14547955	12	4.6230769230769
11	14547955	13	4.7033388067871
11	14547955	14	4.777370030581
11	14547955	15	4.8962553713935
11	14547955	16	4.9337134711333
11	14547955	17	4.9056603773585
11	14547955	18	5.085154483798
11	14547955	19	5.1330089213301
11	14547955	20	5.1821998320739
11	14547955	21	5.1836363636364
11	14547955	22	5.194495412844
11	14547955	23	5.2504930966469
11	14547955	24	5.2214428857715
11	14547955	25	5.3507157464213
vector 12  abilene_network.client[1]  hdistance[1]  ETV
12	14547955	1	1.3456186369093
12	14547955	2	2.1751442521083
12	14547955	3	2.7460150177842
12	14547955	4	2.9856115107914
12	14547955	5	3.322761596548
12	14547955	6	3.5070050224689
12	14547955	7	3.6717692081248
12	14547955	8	3.8483165567511
12	14547955	9	3.866641337386
12	14547955	10	3.9765528589058
12	14547955	11	4.0805984555985
12	14547955	12	4.1163942545815
12	14547955	13	4.1052927927928
12	14547955	14	4.2747720364742
12	14547955	15	4.2804642166344
12	14547955	16	4.2603389830508
12	14547955	17	4.3263234227701
12	14547955	18	4.3497723823976
12	14547955	19	4.3848605577689
12	14547955	20	4.4206484641638
12	14547955	21	4.4670094258783
12	14547955	22	4.4736842105263
12	14547955	23	4.4860279441118
12	14547955	24	4.5005393743258
12	14547955	25	4.5477642276423
vector 13  abilene_network.client[2]  hdistance[2]  ETV
13	14547955	1	1.3507763082231
13	14547955	2	2.0621024734982
13	14547955	3	2.4137259989621
13	14547955	4	2.6188255613126
13	14547955	5	2.8577777777778
13	14547955	6	2.9274111675127
13	14547955	7	3.0526471458148
13	14547955	8	3.1096730245232
13	14547955	9	3.2301587301587
13	14547955	10	3.2942176870748
13	14547955	11	3.232735426009
13	14547955	12	3.3136756481952
13	14547955	13	3.3697571743929
13	14547955	14	3.4849012775842
13	14547955	15	3.4130042143287
13	14547955	16	3.4667981591059
13	14547955	17	3.5502494654312
13	14547955	18	3.5618677042802
13	14547955	19	3.5285053929122
13	14547955	20	3.603066439523
13	14547955	21	3.5802792321117
13	14547955	22	3.5487228003784
13	14547955	23	3.6682879377432
13	14547955	24	3.6307996051333
13	14547955	25	3.5871172122492
vector 14  abilene_network.client[3]  hdistance[3]  ETV
14	14547955	1	1.2448508600043
14	14547955	2	1.6743143005003
14	14547955	3	1.9094432243896
14	14547955	4	2.0361914425841
14	14547955	5	2.1778305963699
14	14547955	6	2.2883997031907
14	14547955	7	2.3284457478006
14	14547955	8	2.3752528658125
14	14547955	9	2.4440312383786
14	14547955	10	2.5036945812808
14	14547955	11	2.5153345724907
14	14547955	12	2.5350125944584
14	14547955	13	2.587786259542
14	14547955	14	2.6360271437384
14	14547955	15	2.6286604361371
14	14547955	16	2.6926934097421
14	14547955	17	2.6892857142857
14	14547955	18	2.685650887574
14	14547955	19	2.7103109656301
14	14547955	20	2.7216054654142
14	14547955	21	2.7603375527426
14	14547955	22	2.7514177693762
14	14547955	23	2.7511916110582
14	14547955	24	2.745951417004
14	14547955	25	2.7728215767635
vector 15  abilene_network.client[4]  hdistance[4]  ETV
15	14547955	1	0.92772449869224
15	14547955	2	1.1775340587782
15	14547955	3	1.3214466363177
15	14547955	4	1.4186792771491
15	14547955	5	1.4514614892255
15	14547955	6	1.5342465753425
15	14547955	7	1.5834559905799
15	14547955	8	1.6259136212625
15	14547955	9	1.6454368932039
15	14547955	10	1.6823379923761
15	14547955	11	1.6906605922551
15	14547955	12	1.717583497053
15	14547955	13	1.7411140583554
15	14547955	14	1.7289442467378
15	14547955	15	1.7478736330498
15	14547955	16	1.7536327608983
15	14547955	17	1.7896233120114
15	14547955	18	1.8050075872534
15	14547955	19	1.8224442736357
15	14547955	20	1.8104631217839
15	14547955	21	1.8099389712293
15	14547955	22	1.8225108225108
15	14547955	23	1.8221797323136
15	14547955	24	1.8676767676768
15	14547955	25	1.8526200873362
vector 16  abilene_network.client[5]  hdistance[5]  ETV
16	14547955	1	0.58952597805837
16	14547955	2	0.67952964557801
16	14547955	3	0.72308853118712
16	14547955	4	0.76951239806956
16	14547955	5	0.79186854855698
16	14547955	6	0.80854271356784
16	14547955	7	0.83189407023604
16	14547955	8	0.85453943008615
16	14547955	9	0.8543438077634
16	14547955	10	0.86449978894048
16	14547955	11	0.87817497648166
16	14547955	12	0.869
16	14547955	13	0.88602150537634
16	14547955	14	0.90089020771513
16	14547955	15	0.88958203368684
16	14547955	16	0.91301504251145
16	14547955	17	0.91619718309859
16	14547955	18	0.90997023809524
16	14547955	19	0.92115848753017
16	14547955	20	0.91147036181678
16	14547955	21	0.93476394849785
16	14547955	22	0.91659111514053
16	14547955	23	0.93526570048309
16	14547955	24	0.93272171253823
16	14547955	25	0.93205944798301
vector 17  abilene_network.client[6]  hdistance[6]  ETV
17	14547955	1	0.78639347021205
17	14547955	2	1.0776936026936
17	14547955	3	1.2391169539874
17	14547955	4	1.3526666666667
17	14547955	5	1.4231170456916
17	14547955	6	1.5057185479861
17	14547955	7	1.554881571346
17	14547955	8	1.606512890095
17	14547955	9	1.6239822353812
17	14547955	10	1.65
17	14547955	11	1.6817769718948
17	14547955	12	1.6996887966805
17	14547955	13	1.7219279661017
17	14547955	14	1.7307022634939
17	14547955	15	1.7187886279357
17	14547955	16	1.758344459279
17	14547955	17	1.7682310469314
17	14547955	18	1.7667660208644
17	14547955	19	1.7851437699681
17	14547955	20	1.82158028887
17	14547955	21	1.792618629174
17	14547955	22	1.8411122144985
17	14547955	23	1.8202554744526
17	14547955	24	1.8296812749004
17	14547955	25	1.8150105708245
vector 18  abilene_network.client[7]  hdistance[7]  ETV
18	14547955	1	0.93008474576271
18	14547955	2	1.4231859167024
18	14547955	3	1.7375740406902
18	14547955	4	1.9724833361818
18	14547955	5	2.0860813704497
18	14547955	6	2.1432903714936
18	14547955	7	2.2835203780272
18	14547955	8	2.3229235880399
18	14547955	9	2.4009397024276
18	14547955	10	2.4241277847835
18	14547955	11	2.4779346866726
18	14547955	12	2.4974974974975
18	14547955	13	2.5258810572687
18	14547955	14	2.5978773584906
18	14547955	15	2.60375
18	14547955	16	2.6174402250352
18	14547955	17	2.6537921348315
18	14547955	18	2.615265998458
18	14547955	19	2.6906419180201
18	14547955	20	2.7128630705394
18	14547955	21	2.6735057983943
18	14547955	22	2.7156308851224
18	14547955	23	2.7086538461538
18	14547955	24	2.7226354941552
18	14547955	25	2.7287287287287
vector 19  abilene_network.client[8]  hdistance[8]  ETV
19	14547955	1	0.84758184850347
19	14547955	2	1.6019861147728
19	14547955	3	2.0513317817429
19	14547955	4	2.3626091422701
19	14547955	5	2.5911870124394
19	14547955	6	2.7469450101833
19	14547955	7	2.9266747133374
19	14547955	8	2.9787014771556
19	14547955	9	3.078031212485
19	14547955	10	3.2089979550102
19	14547955	11	3.2576481835564
19	14547955	12	3.3034825870647
19	14547955	13	3.3020658849805
19	14547955	14	3.3693528693529
19	14547955	15	3.4105131414268
19	14547955	16	3.4551901998711
19	14547955	17	3.4274193548387
19	14547955	18	3.5120061967467
19	14547955	19	3.4710327455919
19	14547955	20	3.5008291873964
19	14547955	21	3.4877430262046
19	14547955	22	3.5526552655266
19	14547955	23	3.5531335149864
19	14547955	24	3.5338042381433
19	14547955	25	3.6395721925134
vector 20  abilene_network.client[9]  hdistance[9]  ETV
20	14547955	1	0.45354496426536
20	14547955	2	1.3573533351192
20	14547955	3	2.0065350760203
20	14547955	4	2.4929353585306
20	14547955	5	2.8632593588881
20	14547955	6	3.0978745736027
20	14547955	7	3.3583815028902
20	14547955	8	3.4983255190891
20	14547955	9	3.6086298258895
20	14547955	10	3.7641427328111
20	14547955	11	3.871550903901
20	14547955	12	3.968578553616
20	14547955	13	4.0547345374932
20	14547955	14	4.0293103448276
20	14547955	15	4.1691358024691
20	14547955	16	4.0998003992016
20	14547955	17	4.2078019504876
20	14547955	18	4.3346394984326
20	14547955	19	4.3708333333333
20	14547955	20	4.390369733448
20	14547955	21	4.3348581884721
20	14547955	22	4.3529953917051
20	14547955	23	4.4030456852792
20	14547955	24	4.4172517552658
20	14547955	25	4.4842562432139
vector 21  abilene_network.client[10]  hdistance[10]  ETV
21	14547955	1	0.57468698012433
21	14547955	2	1.6207597173145
21	14547955	3	2.4123019070642
21	14547955	4	2.9760656883298
21	14547955	5	3.3988173455979
21	14547955	6	3.6919358941745
21	14547955	7	3.9218510573092
21	14547955	8	4.124227865477
21	14547955	9	4.2676624949536
21	14547955	10	4.3617747440273
21	14547955	11	4.4527856468366
21	14547955	12	4.7026178010471
21	14547955	13	4.7253714914694
21	14547955	14	4.7970011534025
21	14547955	15	4.9039440203562
21	14547955	16	4.9451962110961
21	14547955	17	5.0959488272921
21	14547955	18	5.0678627145086
21	14547955	19	5.0597643097643
21	14547955	20	5.3170320404722
21	14547955	21	5.1954751131222
21	14547955	22	5.1951871657754
21	14547955	23	5.2431149097816
21	14547955	24	5.2588473205258
21	14547955	25	5.3718647764449
