file 19161 1434129336                                           
version 2
run General-0-20150612-19:13:56-488
attr D lce
attr F spr
attr R lru
attr a 1
attr configname General
attr datetime 20150612-19:13:56
attr experiment General
attr inifile omnetpp.ini
attr iterationvars "$net=abilene, $rep=0, $a=1, $F=spr, $ttl=1000, $D=lce, $R=lru, $window=60, $variance=0.05, $mytime=1800"
attr iterationvars2 "$net=abilene, $rep=0, $a=1, $F=spr, $ttl=1000, $D=lce, $R=lru, $window=60, $variance=0.05, $mytime=1800, $repetition=0"
attr measurement "$net=abilene, $rep=0, $a=1, $F=spr, $ttl=1000, $D=lce, $R=lru, $window=60, $variance=0.05, $mytime=1800"
attr mytime 1800
attr net abilene
attr network networks.${net=abilene}_network
attr processid 488
attr rep 0
attr repetition 0
attr replication #0
attr resultdir results
attr runnumber 0
attr seedset 0
attr ttl 1000
attr variance 0.05
attr window 60

vector 0  abilene_network.node[0].content_store  hit_node[0]  ETV
0	899 763 14547955 14547955 1 25 25 0.055276381909548 0.7495178197065 4.3986739709941 1.4162755155046
vector 1  abilene_network.node[1].content_store  hit_node[1]  ETV
1	1728 772 14547955 14547955 1 25 25 0.04910394265233 0.4933321557891 3.2731720778613 0.70605893813826
vector 2  abilene_network.node[2].content_store  hit_node[2]  ETV
2	2566 782 14547955 14547955 1 25 25 0.030367607884923 0.41971987022236 2.2825875456774 0.39585664710529
vector 3  abilene_network.node[3].content_store  hit_node[3]  ETV
3	3414 782 14547955 14547955 1 25 25 0.02397926117952 0.37091011658518 1.9272202713422 0.30039198549065
vector 4  abilene_network.node[4].content_store  hit_node[4]  ETV
4	4262 785 14547955 14547955 1 25 25 0.018529354398284 0.33278980136377 1.6980488501211 0.23659808175804
vector 5  abilene_network.node[5].content_store  hit_node[5]  ETV
5	5113 778 14547955 14547955 1 25 25 0.037931402927663 0.33259155203828 2.3514412674922 0.34109377324299
vector 6  abilene_network.node[6].content_store  hit_node[6]  ETV
6	5957 784 14547955 14547955 1 25 25 0.024628014366342 0.4516565419368 2.3150472860307 0.44165141214622
vector 7  abilene_network.node[7].content_store  hit_node[7]  ETV
7	6807 782 14547955 14547955 1 25 25 0.036693847294292 0.49970765362802 2.7672209979066 0.58277828543746
vector 8  abilene_network.node[8].content_store  hit_node[8]  ETV
8	7655 779 14547955 14547955 1 25 25 0.047933884297521 0.58288400387115 3.4733067919926 0.86155580291851
vector 9  abilene_network.node[9].content_store  hit_node[9]  ETV
9	8500 774 14547955 14547955 1 25 25 0.055614973262032 0.74516798009125 4.3233015443609 1.3879348469605
vector 10  abilene_network.node[10].content_store  hit_node[10]  ETV
10	9343 796 14547955 14547955 1 25 25 0.048387096774194 0.74870704037371 4.3582000763567 1.4077939529989
vector 11  abilene_network.client[0]  hdistance[0]  ETV
11	10195 764 14547955 14547955 1 25 25 0.57104498635443 5.3507157464213 106.29714718975 488.15391747555
vector 12  abilene_network.client[1]  hdistance[1]  ETV
12	11015 764 14547955 14547955 1 25 25 1.3456186369093 4.5477642276423 96.519926746495 388.02372878766
vector 13  abilene_network.client[2]  hdistance[2]  ETV
13	11835 764 14547955 14547955 1 25 25 1.3507763082231 3.6682879377432 79.457083564236 260.01233829168
vector 14  abilene_network.client[3]  hdistance[3]  ETV
14	12655 763 14547955 14547955 1 25 25 1.2448508600043 2.7728215767635 61.166541936269 153.17444586606
vector 15  abilene_network.client[4]  hdistance[4]  ETV
15	13474 766 14547955 14547955 1 25 25 0.92772449869224 1.8676767676768 41.150510497028 69.012944048971
vector 16  abilene_network.client[5]  hdistance[5]  ETV
16	14296 779 14547955 14547955 1 25 25 0.58952597805837 0.93526570048309 21.414226872999 18.52671946742
vector 17  abilene_network.client[6]  hdistance[6]  ETV
17	15131 750 14547955 14547955 1 25 25 0.78639347021205 1.8411122144985 40.371711359929 66.830955790691
vector 18  abilene_network.client[7]  hdistance[7]  ETV
18	15937 758 14547955 14547955 1 25 25 0.93008474576271 2.7287287287287 59.266309933926 145.33355200571
vector 19  abilene_network.client[8]  hdistance[8]  ETV
19	16751 766 14547955 14547955 1 25 25 0.84758184850347 3.6395721925134 76.1704948561 243.4260039592
vector 20  abilene_network.client[9]  hdistance[9]  ETV
20	17573 764 14547955 14547955 1 25 25 0.45354496426536 4.4842562432139 89.990144568252 350.01815224405
vector 21  abilene_network.client[10]  hdistance[10]  ETV
21	18395 766 14547955 14547955 1 25 25 0.57468698012433 5.3718647764449 106.68209719627 491.73930360898
