version 2
run General-23-20150311-18:59:43-28978
attr D fix0.1
attr F spr
attr R lru
attr a 1
attr configname General
attr datetime 20150311-18:59:43
attr experiment General
attr inifile omnetpp.ini
attr iterationvars "$net=abilene, $rep=0, $a=1, $F=spr, $ttl=1000, $D=fix0.1, $R=lru"
attr iterationvars2 "$net=abilene, $rep=0, $a=1, $F=spr, $ttl=1000, $D=fix0.1, $R=lru, $repetition=0"
attr measurement "$net=abilene, $rep=0, $a=1, $F=spr, $ttl=1000, $D=fix0.1, $R=lru"
attr net abilene
attr network networks.${net=abilene}_network
attr processid 28978
attr rep 0
attr repetition 0
attr replication #0
attr resultdir results
attr runnumber 23
attr seedset 0
attr ttl 1000

vector 0  abilene_network.node[0].content_store  hit_node[0]  ETV
0	594664	1	1
0	594664	2	1
0	594664	3	1
0	594664	4	1
0	594664	5	1
0	594664	6	1
0	594664	7	1
0	594664	8	1
0	594664	9	1
0	594664	10	1
0	594664	11	1
0	594664	12	1
0	594664	13	1
0	594664	14	1
0	594664	15	0
0	594664	16	1
0	594664	17	1
0	594664	18	1
0	594664	19	1
0	594664	20	0.58333333333333
0	594664	21	0.63636363636364
0	594664	22	0.6
0	594664	23	1
0	594664	24	1
0	594664	25	0
0	594664	26	0
0	594664	27	0.45454545454545
0	594664	28	0
0	594664	29	1
0	594664	30	1
0	594664	31	0
0	594664	32	1
0	594664	33	0.53846153846154
0	594664	34	0
0	594664	35	0
0	594664	36	0
0	594664	37	1
0	594664	38	0.85714285714286
0	594664	39	0.5
0	594664	40	0.5
0	594664	41	0.8
0	594664	42	0.5
0	594664	43	0
0	594664	44	0.25
0	594664	45	0
0	594664	46	1
0	594664	47	0
0	594664	48	0
0	594664	49	0
0	594664	50	1
0	594664	51	0
0	594664	52	0.71428571428571
0	594664	53	0
0	594664	54	1
0	594664	55	0
0	594664	56	1
0	594664	57	0
0	594664	58	0
0	594664	59	0.5
0	594664	60	0
0	594664	61	1
0	594664	62	0
0	594664	63	1
0	594664	64	0.5
0	594664	65	0
0	594664	66	0
0	594664	67	0
0	594664	68	-nan
0	594664	69	0
0	594664	70	0.5
0	594664	71	0
0	594664	72	0
0	594664	73	0
0	594664	74	0
0	594664	75	-nan
0	594664	76	0
vector 1  abilene_network.node[1].content_store  hit_node[1]  ETV
1	594664	1	1
1	594664	2	1
1	594664	3	1
1	594664	4	1
1	594664	5	1
1	594664	6	0.31034482758621
1	594664	7	1
1	594664	8	1
1	594664	9	1
1	594664	10	1
1	594664	11	0.26666666666667
1	594664	12	0.58823529411765
1	594664	13	0.77777777777778
1	594664	14	0.125
1	594664	15	0.31578947368421
1	594664	16	0.76923076923077
1	594664	17	0.8125
1	594664	18	0.95
1	594664	19	0.76923076923077
1	594664	20	0.44444444444444
1	594664	21	1
1	594664	22	0.76923076923077
1	594664	23	0
1	594664	24	1
1	594664	25	0.85714285714286
1	594664	26	0
1	594664	27	0.61111111111111
1	594664	28	0.31578947368421
1	594664	29	0.46666666666667
1	594664	30	0
1	594664	31	1
1	594664	32	0.76923076923077
1	594664	33	1
1	594664	34	0.92307692307692
1	594664	35	0.83333333333333
1	594664	36	0.23529411764706
1	594664	37	0
1	594664	38	0.33333333333333
1	594664	39	0.7
1	594664	40	0.33333333333333
1	594664	41	0.66666666666667
1	594664	42	0.33333333333333
1	594664	43	0.81818181818182
1	594664	44	0.66666666666667
1	594664	45	0.55555555555556
1	594664	46	0.18181818181818
1	594664	47	1
1	594664	48	1
1	594664	49	0.72727272727273
1	594664	50	0
1	594664	51	0.22222222222222
1	594664	52	0
1	594664	53	1
1	594664	54	0
1	594664	55	0.53846153846154
1	594664	56	0
1	594664	57	0.4
1	594664	58	0
1	594664	59	0
1	594664	60	0
1	594664	61	0
1	594664	62	0
1	594664	63	0
1	594664	64	0.5
1	594664	65	0
1	594664	66	0
1	594664	67	0.2
1	594664	68	0
1	594664	69	0
1	594664	70	0.18181818181818
1	594664	71	0.57142857142857
1	594664	72	0.18181818181818
1	594664	73	0
1	594664	74	0.125
1	594664	75	0
1	594664	76	0.75
vector 2  abilene_network.node[2].content_store  hit_node[2]  ETV
2	594664	1	1
2	594664	2	1
2	594664	3	1
2	594664	4	1
2	594664	5	1
2	594664	6	1
2	594664	7	1
2	594664	8	1
2	594664	9	0.81818181818182
2	594664	10	0.73333333333333
2	594664	11	0.91666666666667
2	594664	12	1
2	594664	13	1
2	594664	14	1
2	594664	15	0.65384615384615
2	594664	16	1
2	594664	17	0.86666666666667
2	594664	18	0.42857142857143
2	594664	19	0.73333333333333
2	594664	20	0.89473684210526
2	594664	21	0.72727272727273
2	594664	22	0.53846153846154
2	594664	23	0
2	594664	24	0.33333333333333
2	594664	25	0
2	594664	26	0
2	594664	27	0
2	594664	28	0.8125
2	594664	29	0.86666666666667
2	594664	30	1
2	594664	31	0
2	594664	32	0.57142857142857
2	594664	33	0
2	594664	34	0.375
2	594664	35	0
2	594664	36	0.66666666666667
2	594664	37	0.36363636363636
2	594664	38	0.90909090909091
2	594664	39	0.28571428571429
2	594664	40	0.84615384615385
2	594664	41	0
2	594664	42	0.4
2	594664	43	0
2	594664	44	0
2	594664	45	0
2	594664	46	0.25
2	594664	47	0
2	594664	48	0.5
2	594664	49	0
2	594664	50	0.16666666666667
2	594664	51	1
2	594664	52	1
2	594664	53	0
2	594664	54	0.2
2	594664	55	0.125
2	594664	56	0.14285714285714
2	594664	57	0
2	594664	58	0
2	594664	59	1
2	594664	60	0.16666666666667
2	594664	61	0
2	594664	62	0
2	594664	63	0
2	594664	64	0.5
2	594664	65	0
2	594664	66	0
2	594664	67	0.28571428571429
2	594664	68	0
2	594664	69	0.42857142857143
2	594664	70	0
2	594664	71	0
2	594664	72	0
2	594664	73	0.66666666666667
2	594664	74	0
2	594664	75	0.57142857142857
2	594664	76	0
vector 3  abilene_network.node[3].content_store  hit_node[3]  ETV
3	594664	1	1
3	594664	2	1
3	594664	3	1
3	594664	4	1
3	594664	5	1
3	594664	6	0
3	594664	7	1
3	594664	8	0.35294117647059
3	594664	9	0.43478260869565
3	594664	10	0.31578947368421
3	594664	11	0.63636363636364
3	594664	12	0.125
3	594664	13	0.70588235294118
3	594664	14	0.46153846153846
3	594664	15	0.68421052631579
3	594664	16	0
3	594664	17	0
3	594664	18	1
3	594664	19	0.84615384615385
3	594664	20	0
3	594664	21	0
3	594664	22	0.05
3	594664	23	0.25
3	594664	24	0.81818181818182
3	594664	25	0.53846153846154
3	594664	26	1
3	594664	27	0.55555555555556
3	594664	28	0.54545454545455
3	594664	29	0
3	594664	30	0.25
3	594664	31	0.27272727272727
3	594664	32	0.5
3	594664	33	0.22222222222222
3	594664	34	0.6
3	594664	35	0.33333333333333
3	594664	36	0.38461538461538
3	594664	37	0.2
3	594664	38	0
3	594664	39	0.6875
3	594664	40	0
3	594664	41	0.4
3	594664	42	0.11111111111111
3	594664	43	0.090909090909091
3	594664	44	0.35714285714286
3	594664	45	0.076923076923077
3	594664	46	0
3	594664	47	0
3	594664	48	0
3	594664	49	0.15384615384615
3	594664	50	0.6
3	594664	51	0
3	594664	52	-nan
3	594664	53	0
3	594664	54	0
3	594664	55	0.55555555555556
3	594664	56	0
3	594664	57	0.625
3	594664	58	0.68421052631579
3	594664	59	0.4
3	594664	60	0
3	594664	61	0
3	594664	62	0
3	594664	63	0
3	594664	64	0.25
3	594664	65	0.25
3	594664	66	0.53846153846154
3	594664	67	0
3	594664	68	0
3	594664	69	0
3	594664	70	0.090909090909091
3	594664	71	0
3	594664	72	0
3	594664	73	0
3	594664	74	0.125
3	594664	75	0.375
3	594664	76	0
vector 4  abilene_network.node[4].content_store  hit_node[4]  ETV
4	594664	1	1
4	594664	2	1
4	594664	3	0.671875
4	594664	4	1
4	594664	5	0.82352941176471
4	594664	6	1
4	594664	7	0.5
4	594664	8	1
4	594664	9	0.93333333333333
4	594664	10	0.89189189189189
4	594664	11	0.2962962962963
4	594664	12	0.18181818181818
4	594664	13	0.625
4	594664	14	0.375
4	594664	15	0.13636363636364
4	594664	16	0.6551724137931
4	594664	17	0.85185185185185
4	594664	18	0
4	594664	19	0.33333333333333
4	594664	20	0.45454545454545
4	594664	21	0.92857142857143
4	594664	22	0.69230769230769
4	594664	23	0.63157894736842
4	594664	24	0
4	594664	25	0.15384615384615
4	594664	26	0.5
4	594664	27	0
4	594664	28	0.083333333333333
4	594664	29	0.75
4	594664	30	0
4	594664	31	0.86666666666667
4	594664	32	0.28571428571429
4	594664	33	0
4	594664	34	0
4	594664	35	0.30769230769231
4	594664	36	0.75
4	594664	37	0
4	594664	38	0.16666666666667
4	594664	39	0.21428571428571
4	594664	40	0.22222222222222
4	594664	41	0
4	594664	42	0.3
4	594664	43	0.53846153846154
4	594664	44	0.875
4	594664	45	0
4	594664	46	0.4
4	594664	47	0
4	594664	48	0.33333333333333
4	594664	49	0.33333333333333
4	594664	50	0
4	594664	51	0.28571428571429
4	594664	52	0
4	594664	53	0
4	594664	54	0.44444444444444
4	594664	55	0.1
4	594664	56	0
4	594664	57	0.21428571428571
4	594664	58	0.23076923076923
4	594664	59	0.625
4	594664	60	0.11111111111111
4	594664	61	0.58333333333333
4	594664	62	0
4	594664	63	0
4	594664	64	0
4	594664	65	0.26666666666667
4	594664	66	0.4
4	594664	67	0.36363636363636
4	594664	68	0.4375
4	594664	69	0.33333333333333
4	594664	70	0.27272727272727
4	594664	71	0.28571428571429
4	594664	72	0.89473684210526
4	594664	73	0
4	594664	74	0
4	594664	75	0.22222222222222
4	594664	76	0
vector 5  abilene_network.node[5].content_store  hit_node[5]  ETV
5	594664	1	1
5	594664	2	1
5	594664	3	0.90909090909091
5	594664	4	0.44736842105263
5	594664	5	0.93877551020408
5	594664	6	0.79411764705882
5	594664	7	0
5	594664	8	0.57142857142857
5	594664	9	0.32432432432432
5	594664	10	0.80769230769231
5	594664	11	0.60975609756098
5	594664	12	0.84782608695652
5	594664	13	0.23809523809524
5	594664	14	0.3030303030303
5	594664	15	0.82051282051282
5	594664	16	0.46428571428571
5	594664	17	0.12
5	594664	18	0
5	594664	19	0
5	594664	20	0.44
5	594664	21	0.42857142857143
5	594664	22	0.4
5	594664	23	0
5	594664	24	0.64285714285714
5	594664	25	0.31428571428571
5	594664	26	0.083333333333333
5	594664	27	0.1304347826087
5	594664	28	0.25925925925926
5	594664	29	0
5	594664	30	0.30434782608696
5	594664	31	0
5	594664	32	0.5
5	594664	33	0.15789473684211
5	594664	34	0.17391304347826
5	594664	35	0.39130434782609
5	594664	36	0
5	594664	37	0.375
5	594664	38	0.31818181818182
5	594664	39	0.31818181818182
5	594664	40	0.0625
5	594664	41	0
5	594664	42	0.46153846153846
5	594664	43	0.5
5	594664	44	0.31578947368421
5	594664	45	0.75
5	594664	46	0.23333333333333
5	594664	47	0
5	594664	48	0.3
5	594664	49	0.4
5	594664	50	0.1
5	594664	51	0.10526315789474
5	594664	52	0
5	594664	53	0.4
5	594664	54	0
5	594664	55	0.45454545454545
5	594664	56	0.31818181818182
5	594664	57	0
5	594664	58	0.22222222222222
5	594664	59	0
5	594664	60	0.1304347826087
5	594664	61	0.21052631578947
5	594664	62	0.10526315789474
5	594664	63	0.18181818181818
5	594664	64	0.27272727272727
5	594664	65	0.36363636363636
5	594664	66	0.11764705882353
5	594664	67	0
5	594664	68	0.47058823529412
5	594664	69	0.2
5	594664	70	0.0625
5	594664	71	0.375
5	594664	72	0
5	594664	73	0
5	594664	74	0.052631578947368
5	594664	75	0.36842105263158
5	594664	76	0
vector 6  abilene_network.node[6].content_store  hit_node[6]  ETV
6	594664	1	1
6	594664	2	1
6	594664	3	1
6	594664	4	1
6	594664	5	1
6	594664	6	0.95833333333333
6	594664	7	1
6	594664	8	0.44444444444444
6	594664	9	0.1
6	594664	10	1
6	594664	11	1
6	594664	12	0.58620689655172
6	594664	13	1
6	594664	14	0.5625
6	594664	15	0.1
6	594664	16	0
6	594664	17	0.30769230769231
6	594664	18	1
6	594664	19	1
6	594664	20	0.8
6	594664	21	1
6	594664	22	0.625
6	594664	23	0.5
6	594664	24	0
6	594664	25	0
6	594664	26	0.45454545454545
6	594664	27	0.77777777777778
6	594664	28	0
6	594664	29	0
6	594664	30	0
6	594664	31	0.22222222222222
6	594664	32	0
6	594664	33	0.7
6	594664	34	0
6	594664	35	0.23076923076923
6	594664	36	1
6	594664	37	1
6	594664	38	0.66666666666667
6	594664	39	0
6	594664	40	0.33333333333333
6	594664	41	0.66666666666667
6	594664	42	1
6	594664	43	0
6	594664	44	0
6	594664	45	0.41666666666667
6	594664	46	0.0625
6	594664	47	0.83333333333333
6	594664	48	0
6	594664	49	0
6	594664	50	1
6	594664	51	0
6	594664	52	0.16666666666667
6	594664	53	0
6	594664	54	0.63636363636364
6	594664	55	0
6	594664	56	0
6	594664	57	0.83333333333333
6	594664	58	0.66666666666667
6	594664	59	0
6	594664	60	0
6	594664	61	0.33333333333333
6	594664	62	0.57142857142857
6	594664	63	0.16666666666667
6	594664	64	0.5
6	594664	65	0.3
6	594664	66	0
6	594664	67	0.75
6	594664	68	0
6	594664	69	0
6	594664	70	0.11111111111111
6	594664	71	0.25
6	594664	72	0.2
6	594664	73	0.71428571428571
6	594664	74	0.4
6	594664	75	0
6	594664	76	0.66666666666667
vector 7  abilene_network.node[7].content_store  hit_node[7]  ETV
7	594664	1	1
7	594664	2	1
7	594664	3	1
7	594664	4	1
7	594664	5	1
7	594664	6	1
7	594664	7	1
7	594664	8	1
7	594664	9	1
7	594664	10	1
7	594664	11	0.27272727272727
7	594664	12	0.26315789473684
7	594664	13	0
7	594664	14	0.81818181818182
7	594664	15	1
7	594664	16	1
7	594664	17	0.4
7	594664	18	0.38888888888889
7	594664	19	0.1875
7	594664	20	0
7	594664	21	1
7	594664	22	1
7	594664	23	1
7	594664	24	0.1875
7	594664	25	0.58823529411765
7	594664	26	0
7	594664	27	0
7	594664	28	1
7	594664	29	1
7	594664	30	1
7	594664	31	0.8
7	594664	32	0.875
7	594664	33	0
7	594664	34	0.6
7	594664	35	0
7	594664	36	0
7	594664	37	0.36363636363636
7	594664	38	0
7	594664	39	1
7	594664	40	0
7	594664	41	0
7	594664	42	0
7	594664	43	1
7	594664	44	0.33333333333333
7	594664	45	0
7	594664	46	0.090909090909091
7	594664	47	0
7	594664	48	0
7	594664	49	0.63636363636364
7	594664	50	0
7	594664	51	0
7	594664	52	0.2
7	594664	53	0.125
7	594664	54	0
7	594664	55	0
7	594664	56	0.16666666666667
7	594664	57	0
7	594664	58	0.16666666666667
7	594664	59	0.14285714285714
7	594664	60	0.28571428571429
7	594664	61	0.11111111111111
7	594664	62	0
7	594664	63	0
7	594664	64	0.72727272727273
7	594664	65	0
7	594664	66	0
7	594664	67	0
7	594664	68	0.6
7	594664	69	0.75
7	594664	70	0.5
7	594664	71	0
7	594664	72	0.44444444444444
7	594664	73	0
7	594664	74	0
7	594664	75	0
7	594664	76	0.6
vector 8  abilene_network.node[8].content_store  hit_node[8]  ETV
8	594664	1	1
8	594664	2	1
8	594664	3	1
8	594664	4	1
8	594664	5	1
8	594664	6	1
8	594664	7	1
8	594664	8	1
8	594664	9	1
8	594664	10	0.3125
8	594664	11	0.83333333333333
8	594664	12	1
8	594664	13	1
8	594664	14	0.70833333333333
8	594664	15	0.90909090909091
8	594664	16	1
8	594664	17	0.875
8	594664	18	0.42857142857143
8	594664	19	0.33333333333333
8	594664	20	1
8	594664	21	0
8	594664	22	0
8	594664	23	0.44444444444444
8	594664	24	1
8	594664	25	0
8	594664	26	0.83333333333333
8	594664	27	0.5
8	594664	28	0.5
8	594664	29	1
8	594664	30	0
8	594664	31	0
8	594664	32	0.6
8	594664	33	1
8	594664	34	0.2
8	594664	35	0
8	594664	36	0
8	594664	37	0.22222222222222
8	594664	38	0.69230769230769
8	594664	39	0
8	594664	40	0.2
8	594664	41	0.125
8	594664	42	0.5
8	594664	43	0
8	594664	44	0.625
8	594664	45	0
8	594664	46	0
8	594664	47	0.72727272727273
8	594664	48	0
8	594664	49	0
8	594664	50	0.22222222222222
8	594664	51	1
8	594664	52	0.83333333333333
8	594664	53	0
8	594664	54	0
8	594664	55	1
8	594664	56	0
8	594664	57	0
8	594664	58	0.25
8	594664	59	0
8	594664	60	0
8	594664	61	0
8	594664	62	0
8	594664	63	0.42857142857143
8	594664	64	0
8	594664	65	0
8	594664	66	0.5
8	594664	67	0.35714285714286
8	594664	68	0
8	594664	69	0.42857142857143
8	594664	70	0
8	594664	71	0
8	594664	72	0
8	594664	73	0
8	594664	74	0
8	594664	75	0
8	594664	76	0.5
vector 9  abilene_network.node[9].content_store  hit_node[9]  ETV
9	594664	1	1
9	594664	2	1
9	594664	3	1
9	594664	4	1
9	594664	5	1
9	594664	6	1
9	594664	7	0.75
9	594664	8	1
9	594664	9	1
9	594664	10	1
9	594664	11	1
9	594664	12	0.91666666666667
9	594664	13	0.8125
9	594664	14	0.33333333333333
9	594664	15	1
9	594664	16	0.375
9	594664	17	1
9	594664	18	1
9	594664	19	1
9	594664	20	1
9	594664	21	1
9	594664	22	0.6
9	594664	23	0
9	594664	24	0.16666666666667
9	594664	25	1
9	594664	26	0.4
9	594664	27	1
9	594664	28	1
9	594664	29	0.6
9	594664	30	0
9	594664	31	1
9	594664	32	1
9	594664	33	0
9	594664	34	1
9	594664	35	1
9	594664	36	1
9	594664	37	1
9	594664	38	0
9	594664	39	0.71428571428571
9	594664	40	0
9	594664	41	0
9	594664	42	1
9	594664	43	1
9	594664	44	0
9	594664	45	0
9	594664	46	-nan
9	594664	47	0
9	594664	48	0
9	594664	49	0
9	594664	50	-nan
9	594664	51	0
9	594664	52	0
9	594664	53	0
9	594664	54	0
9	594664	55	0
9	594664	56	0.5
9	594664	57	1
9	594664	58	0.55555555555556
9	594664	59	1
9	594664	60	1
9	594664	61	0
9	594664	62	0.25
9	594664	63	0
9	594664	64	0
9	594664	65	0
9	594664	66	0
9	594664	67	0
9	594664	68	0
9	594664	69	0
9	594664	70	0
9	594664	71	0.33333333333333
9	594664	72	0
9	594664	73	0.5
9	594664	74	1
9	594664	75	0.33333333333333
9	594664	76	-nan
vector 10  abilene_network.node[10].content_store  hit_node[10]  ETV
10	594664	1	1
10	594664	2	1
10	594664	3	1
10	594664	4	1
10	594664	5	1
10	594664	6	1
10	594664	7	1
10	594664	8	1
10	594664	9	1
10	594664	10	1
10	594664	11	1
10	594664	12	1
10	594664	13	1
10	594664	14	1
10	594664	15	1
10	594664	16	1
10	594664	17	1
10	594664	18	0.3
10	594664	19	1
10	594664	20	0
10	594664	21	0
10	594664	22	1
10	594664	23	1
10	594664	24	0.4
10	594664	25	0.75
10	594664	26	1
10	594664	27	0
10	594664	28	0
10	594664	29	0
10	594664	30	0
10	594664	31	0.625
10	594664	32	0
10	594664	33	0
10	594664	34	0.66666666666667
10	594664	35	1
10	594664	36	0
10	594664	37	0
10	594664	38	0
10	594664	39	0
10	594664	40	0
10	594664	41	0
10	594664	42	1
10	594664	43	1
10	594664	44	0
10	594664	45	0
10	594664	46	0
10	594664	47	0.4
10	594664	48	0
10	594664	49	0.5
10	594664	50	1
10	594664	51	1
10	594664	52	0
10	594664	53	0
10	594664	54	0
10	594664	55	0
10	594664	56	1
10	594664	57	1
10	594664	58	0
10	594664	59	0
10	594664	60	1
10	594664	61	0.33333333333333
10	594664	62	0
10	594664	63	0
10	594664	64	0
10	594664	65	0
10	594664	66	0
10	594664	67	0
10	594664	68	0
10	594664	69	0
10	594664	70	0.4
10	594664	71	0.42857142857143
10	594664	72	0
10	594664	73	0
10	594664	74	0.25
10	594664	75	0
10	594664	76	0
vector 11  abilene_network.client[0]  hdistance[0]  ETV
11	594664	1	0
11	594664	2	0
11	594664	3	0
11	594664	4	0
11	594664	5	0
11	594664	6	0
11	594664	7	0
11	594664	8	0
11	594664	9	0
11	594664	10	0
11	594664	11	0
11	594664	12	0
11	594664	13	0
11	594664	14	0
11	594664	15	1.75
11	594664	16	0
11	594664	17	0
11	594664	18	0
11	594664	19	0
11	594664	20	0.41666666666667
11	594664	21	0.36363636363636
11	594664	22	0.4
11	594664	23	0
11	594664	24	0
11	594664	25	1.4444444444444
11	594664	26	3
11	594664	27	1.0909090909091
11	594664	28	1.5714285714286
11	594664	29	0
11	594664	30	0
11	594664	31	1
11	594664	32	0
11	594664	33	0.46153846153846
11	594664	34	1.125
11	594664	35	1.8333333333333
11	594664	36	2.4
11	594664	37	0
11	594664	38	0.14285714285714
11	594664	39	0.83333333333333
11	594664	40	1
11	594664	41	0.2
11	594664	42	2
11	594664	43	1.8
11	594664	44	0.75
11	594664	45	1
11	594664	46	0
11	594664	47	1
11	594664	48	1
11	594664	49	1
11	594664	50	0
11	594664	51	1.75
11	594664	52	0.57142857142857
11	594664	53	1
11	594664	54	0
11	594664	55	1.5
11	594664	56	0
11	594664	57	3.25
11	594664	58	3.5714285714286
11	594664	59	1
11	594664	60	5
11	594664	61	0
11	594664	62	6
11	594664	63	0
11	594664	64	0.5
11	594664	65	5.5
11	594664	66	4
11	594664	67	6
11	594664	68	0
11	594664	69	4.2
11	594664	70	1.25
11	594664	71	4
11	594664	72	3.25
11	594664	73	2
11	594664	74	5.25
11	594664	75	0
11	594664	76	1
vector 12  abilene_network.client[1]  hdistance[1]  ETV
12	594664	1	0
12	594664	2	0
12	594664	3	0
12	594664	4	0
12	594664	5	0
12	594664	6	0.68965517241379
12	594664	7	0
12	594664	8	0
12	594664	9	0
12	594664	10	0
12	594664	11	0.73333333333333
12	594664	12	0.41176470588235
12	594664	13	0.22222222222222
12	594664	14	0.875
12	594664	15	1.0909090909091
12	594664	16	0.23076923076923
12	594664	17	0.1875
12	594664	18	0.15384615384615
12	594664	19	0.30769230769231
12	594664	20	0.8
12	594664	21	0
12	594664	22	0.63636363636364
12	594664	23	3.8
12	594664	24	0
12	594664	25	0.5
12	594664	26	2
12	594664	27	1
12	594664	28	1
12	594664	29	0.66666666666667
12	594664	30	1
12	594664	31	0
12	594664	32	0.25
12	594664	33	0
12	594664	34	0
12	594664	35	0
12	594664	36	0.75
12	594664	37	2.6666666666667
12	594664	38	0.66666666666667
12	594664	39	0.66666666666667
12	594664	40	0.6
12	594664	41	0.66666666666667
12	594664	42	1
12	594664	43	0.83333333333333
12	594664	44	0.28571428571429
12	594664	45	3
12	594664	46	3
12	594664	47	0
12	594664	48	0
12	594664	49	0.57142857142857
12	594664	50	3
12	594664	51	0.8
12	594664	52	1
12	594664	53	0
12	594664	54	5
12	594664	55	1.8
12	594664	56	5
12	594664	57	1.1666666666667
12	594664	58	3.5
12	594664	59	0
12	594664	60	3.6666666666667
12	594664	61	3
12	594664	62	0
12	594664	63	4
12	594664	64	0
12	594664	65	3.5
12	594664	66	3
12	594664	67	3
12	594664	68	0
12	594664	69	1
12	594664	70	3.5
12	594664	71	4
12	594664	72	3.4
12	594664	73	1
12	594664	74	5
12	594664	75	2.3333333333333
12	594664	76	2.5
vector 13  abilene_network.client[2]  hdistance[2]  ETV
13	594664	1	0
13	594664	2	0
13	594664	3	0
13	594664	4	0
13	594664	5	0
13	594664	6	0
13	594664	7	0
13	594664	8	0
13	594664	9	0.18181818181818
13	594664	10	0.4
13	594664	11	0.15384615384615
13	594664	12	0
13	594664	13	0
13	594664	14	0
13	594664	15	0.53846153846154
13	594664	16	0
13	594664	17	0.33333333333333
13	594664	18	0.5
13	594664	19	0.5
13	594664	20	0.44444444444444
13	594664	21	0.54545454545455
13	594664	22	0.8
13	594664	23	2.3333333333333
13	594664	24	0.83333333333333
13	594664	25	2.8
13	594664	26	1
13	594664	27	3
13	594664	28	0.66666666666667
13	594664	29	0.57142857142857
13	594664	30	0
13	594664	31	2
13	594664	32	0.75
13	594664	33	2.4
13	594664	34	2
13	594664	35	2.5
13	594664	36	0.8
13	594664	37	2.1666666666667
13	594664	38	1.3333333333333
13	594664	39	1
13	594664	40	0.8
13	594664	41	2.5
13	594664	42	2
13	594664	43	2.6666666666667
13	594664	44	1.8
13	594664	45	3.25
13	594664	46	2.6666666666667
13	594664	47	4
13	594664	48	1.5
13	594664	49	3
13	594664	50	4
13	594664	51	0
13	594664	52	0
13	594664	53	4
13	594664	54	0
13	594664	55	2.5
13	594664	56	3.1666666666667
13	594664	57	1.6
13	594664	58	2.5
13	594664	59	0
13	594664	60	4
13	594664	61	3
13	594664	62	3.75
13	594664	63	3.75
13	594664	64	1
13	594664	65	2.6
13	594664	66	1.5
13	594664	67	2
13	594664	68	2.75
13	594664	69	0
13	594664	70	1
13	594664	71	4
13	594664	72	2.4
13	594664	73	2.6666666666667
13	594664	74	4
13	594664	75	0
13	594664	76	4
vector 14  abilene_network.client[3]  hdistance[3]  ETV
14	594664	1	0
14	594664	2	0
14	594664	3	0
14	594664	4	0
14	594664	5	0
14	594664	6	1
14	594664	7	0
14	594664	8	0.64705882352941
14	594664	9	0.68421052631579
14	594664	10	0.73333333333333
14	594664	11	0.85
14	594664	12	1.875
14	594664	13	0.29411764705882
14	594664	14	1.0769230769231
14	594664	15	1
14	594664	16	1.5714285714286
14	594664	17	1.2857142857143
14	594664	18	0
14	594664	19	0.11111111111111
14	594664	20	2
14	594664	21	1.0769230769231
14	594664	22	1.4285714285714
14	594664	23	0.66666666666667
14	594664	24	1
14	594664	25	1
14	594664	26	0
14	594664	27	1.8
14	594664	28	1.5
14	594664	29	2
14	594664	30	2
14	594664	31	0.57142857142857
14	594664	32	1.6666666666667
14	594664	33	3
14	594664	34	0.6
14	594664	35	1
14	594664	36	1
14	594664	37	2.6666666666667
14	594664	38	2
14	594664	39	0.63636363636364
14	594664	40	2.6
14	594664	41	2.4
14	594664	42	2
14	594664	43	1.1666666666667
14	594664	44	1
14	594664	45	2.2
14	594664	46	2.5
14	594664	47	3
14	594664	48	3
14	594664	49	2.6666666666667
14	594664	50	0.6
14	594664	51	2.3333333333333
14	594664	52	0
14	594664	53	2
14	594664	54	3
14	594664	55	1.5
14	594664	56	2.3333333333333
14	594664	57	1.4
14	594664	58	0.33333333333333
14	594664	59	1
14	594664	60	3
14	594664	61	2
14	594664	62	3
14	594664	63	3
14	594664	64	2.5
14	594664	65	1
14	594664	66	2
14	594664	67	2.2
14	594664	68	2.2
14	594664	69	1
14	594664	70	3
14	594664	71	2.5
14	594664	72	1
14	594664	73	0
14	594664	74	0
14	594664	75	1.2
14	594664	76	3
vector 15  abilene_network.client[4]  hdistance[4]  ETV
15	594664	1	0
15	594664	2	0
15	594664	3	0.328125
15	594664	4	0
15	594664	5	0.17647058823529
15	594664	6	0
15	594664	7	0.96551724137931
15	594664	8	0
15	594664	9	0.11764705882353
15	594664	10	0.16666666666667
15	594664	11	0.84210526315789
15	594664	12	1.0666666666667
15	594664	13	0.90909090909091
15	594664	14	0.94117647058824
15	594664	15	1.0625
15	594664	16	0.73333333333333
15	594664	17	0.33333333333333
15	594664	18	2
15	594664	19	1.3846153846154
15	594664	20	0.7
15	594664	21	0.083333333333333
15	594664	22	0.71428571428571
15	594664	23	1
15	594664	24	1.25
15	594664	25	1.2857142857143
15	594664	26	1
15	594664	27	2
15	594664	28	1.8571428571429
15	594664	29	0.25
15	594664	30	1.8
15	594664	31	0.57142857142857
15	594664	32	1
15	594664	33	2
15	594664	34	1.75
15	594664	35	1.7142857142857
15	594664	36	0
15	594664	37	1.3333333333333
15	594664	38	1.25
15	594664	39	1.3333333333333
15	594664	40	1
15	594664	41	2
15	594664	42	1.5
15	594664	43	0.66666666666667
15	594664	44	0.28571428571429
15	594664	45	1
15	594664	46	1.5
15	594664	47	2
15	594664	48	0
15	594664	49	0.75
15	594664	50	2
15	594664	51	1.5
15	594664	52	2
15	594664	53	1.3333333333333
15	594664	54	0.66666666666667
15	594664	55	1.3333333333333
15	594664	56	1.6666666666667
15	594664	57	1.75
15	594664	58	1.8571428571429
15	594664	59	0.8
15	594664	60	1.5
15	594664	61	1
15	594664	62	2
15	594664	63	0
15	594664	64	0
15	594664	65	1.6666666666667
15	594664	66	2
15	594664	67	2
15	594664	68	0.25
15	594664	69	1.3333333333333
15	594664	70	2
15	594664	71	2
15	594664	72	0
15	594664	73	2
15	594664	74	2
15	594664	75	1.25
15	594664	76	2
vector 16  abilene_network.client[5]  hdistance[5]  ETV
16	594664	1	0
16	594664	2	0
16	594664	3	0.11940298507463
16	594664	4	0.55263157894737
16	594664	5	0.069767441860465
16	594664	6	0.21212121212121
16	594664	7	1
16	594664	8	0.48
16	594664	9	0.64705882352941
16	594664	10	0.22727272727273
16	594664	11	0.45454545454545
16	594664	12	0.0625
16	594664	13	0.8
16	594664	14	0.72727272727273
16	594664	15	0.18181818181818
16	594664	16	0.33333333333333
16	594664	17	1
16	594664	18	1
16	594664	19	1
16	594664	20	0.55555555555556
16	594664	21	0.66666666666667
16	594664	22	0.55555555555556
16	594664	23	1
16	594664	24	0.4
16	594664	25	0.69230769230769
16	594664	26	1
16	594664	27	0.5
16	594664	28	0.66666666666667
16	594664	29	1
16	594664	30	0.61538461538462
16	594664	31	1
16	594664	32	0.5
16	594664	33	1
16	594664	34	1
16	594664	35	0.5
16	594664	36	1
16	594664	37	0.5
16	594664	38	0.83333333333333
16	594664	39	1
16	594664	40	0.66666666666667
16	594664	41	1
16	594664	42	0.66666666666667
16	594664	43	0.57142857142857
16	594664	44	0.85714285714286
16	594664	45	0.5
16	594664	46	0.5
16	594664	47	1
16	594664	48	1
16	594664	49	0.5
16	594664	50	0.8
16	594664	51	0.77777777777778
16	594664	52	1
16	594664	53	0.33333333333333
16	594664	54	1
16	594664	55	0.42857142857143
16	594664	56	0.5
16	594664	57	1
16	594664	58	0.75
16	594664	59	1
16	594664	60	0.75
16	594664	61	0.75
16	594664	62	1
16	594664	63	0.33333333333333
16	594664	64	0.6
16	594664	65	1
16	594664	66	0.8
16	594664	67	1
16	594664	68	0.6
16	594664	69	1
16	594664	70	0
16	594664	71	0.5
16	594664	72	0
16	594664	73	1
16	594664	74	1
16	594664	75	0.5
16	594664	76	1
vector 17  abilene_network.client[6]  hdistance[6]  ETV
17	594664	1	0
17	594664	2	0
17	594664	3	0
17	594664	4	0
17	594664	5	0
17	594664	6	0.041666666666667
17	594664	7	0
17	594664	8	0.72222222222222
17	594664	9	1.6
17	594664	10	0
17	594664	11	0
17	594664	12	0.53333333333333
17	594664	13	0
17	594664	14	0.66666666666667
17	594664	15	0.9
17	594664	16	1.3333333333333
17	594664	17	0.85714285714286
17	594664	18	0
17	594664	19	0
17	594664	20	0.4
17	594664	21	0
17	594664	22	0.75
17	594664	23	1
17	594664	24	1.5
17	594664	25	1.5
17	594664	26	1.4
17	594664	27	0.4
17	594664	28	1.7142857142857
17	594664	29	2
17	594664	30	2
17	594664	31	2
17	594664	32	1.5
17	594664	33	0.4
17	594664	34	1.6666666666667
17	594664	35	1
17	594664	36	0
17	594664	37	0
17	594664	38	0.57142857142857
17	594664	39	1.75
17	594664	40	1.5
17	594664	41	1
17	594664	42	0
17	594664	43	1
17	594664	44	1.6666666666667
17	594664	45	0.5
17	594664	46	1.8333333333333
17	594664	47	0.66666666666667
17	594664	48	2
17	594664	49	1
17	594664	50	0
17	594664	51	2
17	594664	52	2
17	594664	53	1.5
17	594664	54	0.33333333333333
17	594664	55	2
17	594664	56	2
17	594664	57	0
17	594664	58	0.71428571428571
17	594664	59	2
17	594664	60	2
17	594664	61	1.4285714285714
17	594664	62	0
17	594664	63	2
17	594664	64	2
17	594664	65	1
17	594664	66	1.75
17	594664	67	0.66666666666667
17	594664	68	1
17	594664	69	2
17	594664	70	1.8333333333333
17	594664	71	1.2
17	594664	72	2
17	594664	73	0.66666666666667
17	594664	74	0.75
17	594664	75	2
17	594664	76	2
vector 18  abilene_network.client[7]  hdistance[7]  ETV
18	594664	1	0
18	594664	2	0
18	594664	3	0
18	594664	4	0
18	594664	5	0
18	594664	6	0
18	594664	7	0
18	594664	8	0
18	594664	9	0
18	594664	10	0
18	594664	11	0.84210526315789
18	594664	12	0.94736842105263
18	594664	13	1
18	594664	14	0.66666666666667
18	594664	15	0
18	594664	16	0
18	594664	17	1.6666666666667
18	594664	18	0.57142857142857
18	594664	19	0.83333333333333
18	594664	20	1.4
18	594664	21	0
18	594664	22	0
18	594664	23	0
18	594664	24	1.875
18	594664	25	1.4285714285714
18	594664	26	1.5
18	594664	27	2
18	594664	28	0
18	594664	29	0
18	594664	30	0
18	594664	31	0.5
18	594664	32	0.5
18	594664	33	1.6
18	594664	34	1
18	594664	35	2
18	594664	36	1
18	594664	37	0.5
18	594664	38	2.1428571428571
18	594664	39	0
18	594664	40	3
18	594664	41	1
18	594664	42	1
18	594664	43	0
18	594664	44	1.6666666666667
18	594664	45	1.75
18	594664	46	2.1666666666667
18	594664	47	1.3333333333333
18	594664	48	3
18	594664	49	1.2
18	594664	50	1
18	594664	51	3
18	594664	52	1.75
18	594664	53	2.5
18	594664	54	2
18	594664	55	2
18	594664	56	1
18	594664	57	1.8
18	594664	58	1.3333333333333
18	594664	59	3
18	594664	60	1.8
18	594664	61	1.5
18	594664	62	2
18	594664	63	3
18	594664	64	0.66666666666667
18	594664	65	2
18	594664	66	3
18	594664	67	2
18	594664	68	1.5
18	594664	69	0
18	594664	70	0
18	594664	71	2
18	594664	72	0
18	594664	73	3
18	594664	74	2.3333333333333
18	594664	75	3
18	594664	76	0.33333333333333
vector 19  abilene_network.client[8]  hdistance[8]  ETV
19	594664	1	0
19	594664	2	0
19	594664	3	0
19	594664	4	0
19	594664	5	0
19	594664	6	0
19	594664	7	0
19	594664	8	0
19	594664	9	0
19	594664	10	0.6875
19	594664	11	0.16666666666667
19	594664	12	0
19	594664	13	0
19	594664	14	0.14285714285714
19	594664	15	0.090909090909091
19	594664	16	0
19	594664	17	0.125
19	594664	18	1
19	594664	19	1.1666666666667
19	594664	20	0
19	594664	21	1
19	594664	22	1
19	594664	23	0.6
19	594664	24	0
19	594664	25	1.8
19	594664	26	0.22222222222222
19	594664	27	1
19	594664	28	0.5
19	594664	29	0
19	594664	30	1
19	594664	31	1
19	594664	32	0.4
19	594664	33	0
19	594664	34	1.8
19	594664	35	3.1666666666667
19	594664	36	2
19	594664	37	1.3333333333333
19	594664	38	0.33333333333333
19	594664	39	1
19	594664	40	1
19	594664	41	2
19	594664	42	1
19	594664	43	1
19	594664	44	1.1428571428571
19	594664	45	3
19	594664	46	3.6
19	594664	47	0.5
19	594664	48	3
19	594664	49	1.75
19	594664	50	1.5555555555556
19	594664	51	0
19	594664	52	1