file 19207 1434129344                                           
version 2
run General-3-20150612-19:13:56-494
attr D lce
attr F spr
attr R two
attr a 1
attr configname General
attr datetime 20150612-19:13:56
attr experiment General
attr inifile omnetpp.ini
attr iterationvars "$net=abilene, $rep=0, $a=1, $F=spr, $ttl=1000, $D=lce, $R=two, $window=60, $variance=0.05, $mytime=1800"
attr iterationvars2 "$net=abilene, $rep=0, $a=1, $F=spr, $ttl=1000, $D=lce, $R=two, $window=60, $variance=0.05, $mytime=1800, $repetition=0"
attr measurement "$net=abilene, $rep=0, $a=1, $F=spr, $ttl=1000, $D=lce, $R=two, $window=60, $variance=0.05, $mytime=1800"
attr mytime 1800
attr net abilene
attr network networks.${net=abilene}_network
attr processid 494
attr rep 0
attr repetition 0
attr replication #0
attr resultdir results
attr runnumber 3
attr seedset 0
attr ttl 1000
attr variance 0.05
attr window 60

vector 0  abilene_network.node[0].content_store  hit_node[0]  ETV
0	899 781 15090351 15090351 1 25 25 0.039195979899497 0.4074213836478 2.6211409565998 0.45156679300563
vector 1  abilene_network.node[1].content_store  hit_node[1]  ETV
1	1746 783 15090351 15090351 1 25 25 0.033426183844011 0.29484103179364 2.0360203598241 0.25978171238673
vector 2  abilene_network.node[2].content_store  hit_node[2]  ETV
2	2595 779 15090351 15090351 1 25 25 0.026590909090909 0.24835387124074 1.595846914447 0.16670572478421
vector 3  abilene_network.node[3].content_store  hit_node[3]  ETV
3	3440 786 15090351 15090351 1 25 25 0.017409766454352 0.22670259221407 1.3567008718133 0.12857565666102
vector 4  abilene_network.node[4].content_store  hit_node[4]  ETV
4	4292 785 15090351 15090351 1 25 25 0.019186492709133 0.21322532594688 1.2776335193865 0.11381824280962
vector 5  abilene_network.node[5].content_store  hit_node[5]  ETV
5	5143 785 15090351 15090351 1 25 25 0.026508480860135 0.22216735364367 1.5259960695875 0.14451060622309
vector 6  abilene_network.node[6].content_store  hit_node[6]  ETV
6	5994 784 15090351 15090351 1 25 25 0.022358859698155 0.27592165898618 1.5712152405016 0.17957649846499
vector 7  abilene_network.node[7].content_store  hit_node[7]  ETV
7	6844 785 15090351 15090351 1 25 25 0.026798825256975 0.29538612336344 1.8190218608109 0.22520502043114
vector 8  abilene_network.node[8].content_store  hit_node[8]  ETV
8	7695 784 15090351 15090351 1 25 25 0.034979423868313 0.33794206707422 2.150296292415 0.30508441360042
vector 9  abilene_network.node[9].content_store  hit_node[9]  ETV
9	8545 780 15090351 15090351 1 25 25 0.040609137055838 0.40821236001659 2.5840203509744 0.44818133666228
vector 10  abilene_network.node[10].content_store  hit_node[10]  ETV
10	9394 799 15090351 15090351 1 25 25 0.033333333333333 0.40840840840841 2.571145098288 0.4478354009816
vector 11  abilene_network.client[0]  hdistance[0]  ETV
11	10249 765 15090351 15090351 1 25 25 1.9701521094423 5.4437627811861 118.85106372283 582.57224428984
vector 12  abilene_network.client[1]  hdistance[1]  ETV
12	11070 765 15090351 15090351 1 25 25 2.3037665391176 4.6439471007121 104.15445633495 441.74128948029
vector 13  abilene_network.client[2]  hdistance[2]  ETV
13	11891 766 15090351 15090351 1 25 25 2.0974668603595 3.7237354085603 85.047727950259 293.09146894016
vector 14  abilene_network.client[3]  hdistance[3]  ETV
14	12713 764 15090351 15090351 1 25 25 1.750994958875 2.8322211630124 65.112982197841 171.28911971736
vector 15  abilene_network.client[4]  hdistance[4]  ETV
15	13533 766 15090351 15090351 1 25 25 1.2815014590149 1.8959595959596 44.308575773264 79.082916817246
vector 16  abilene_network.client[5]  hdistance[5]  ETV
16	14355 778 15090351 15090351 1 25 25 0.71509004346927 0.95793991416309 22.739345920834 20.766786286763
vector 17  abilene_network.client[6]  hdistance[6]  ETV
17	15189 765 15090351 15090351 1 25 25 1.1752760502602 1.8927507447865 43.811470729304 77.499647900783
vector 18  abilene_network.client[7]  hdistance[7]  ETV
18	16010 752 15090351 15090351 1 25 25 1.5402415373766 2.8182674199623 64.091160089103 166.59485005925
vector 19  abilene_network.client[8]  hdistance[8]  ETV
19	16818 750 15090351 15090351 1 25 25 1.7186800127977 3.6962663975782 83.334144609118 283.21988891783
vector 20  abilene_network.client[9]  hdistance[9]  ETV
20	17624 761 15090351 15090351 1 25 25 1.59594353712 4.5798045602606 100.33792128208 415.55023443871
vector 21  abilene_network.client[10]  hdistance[10]  ETV
21	18443 764 15090351 15090351 1 25 25 1.9610303203118 5.5310796074155 119.46242242365 589.04584068192
