version 2
run General-3-20150612-19:13:56-494
attr D lce
attr F spr
attr R two
attr a 1
attr configname General
attr datetime 20150612-19:13:56
attr experiment General
attr inifile omnetpp.ini
attr iterationvars "$net=abilene, $rep=0, $a=1, $F=spr, $ttl=1000, $D=lce, $R=two, $window=60, $variance=0.05, $mytime=1800"
attr iterationvars2 "$net=abilene, $rep=0, $a=1, $F=spr, $ttl=1000, $D=lce, $R=two, $window=60, $variance=0.05, $mytime=1800, $repetition=0"
attr measurement "$net=abilene, $rep=0, $a=1, $F=spr, $ttl=1000, $D=lce, $R=two, $window=60, $variance=0.05, $mytime=1800"
attr mytime 1800
attr net abilene
attr network networks.${net=abilene}_network
attr processid 494
attr rep 0
attr repetition 0
attr replication #0
attr resultdir results
attr runnumber 3
attr seedset 0
attr ttl 1000
attr variance 0.05
attr window 60

vector 0  abilene_network.node[0].content_store  hit_node[0]  ETV
0	15090351	1	0.4074213836478
0	15090351	2	0.27590230891056
0	15090351	3	0.21693254616254
0	15090351	4	0.17056910569106
0	15090351	5	0.1524452629425
0	15090351	6	0.12570865171309
0	15090351	7	0.12237762237762
0	15090351	8	0.099364335898294
0	15090351	9	0.096321577550246
0	15090351	10	0.087231352718078
0	15090351	11	0.078146297137665
0	15090351	12	0.074185463659148
0	15090351	13	0.080515297906602
0	15090351	14	0.07202380952381
0	15090351	15	0.059772863120143
0	15090351	16	0.057262569832402
0	15090351	17	0.057950530035336
0	15090351	18	0.060785767234989
0	15090351	19	0.053514376996805
0	15090351	20	0.044481054365733
0	15090351	21	0.044722719141324
0	15090351	22	0.050587172538392
0	15090351	23	0.048402710551791
0	15090351	24	0.045320197044335
0	15090351	25	0.039195979899497
vector 1  abilene_network.node[1].content_store  hit_node[1]  ETV
1	15090351	1	0.29484103179364
1	15090351	2	0.20984907479512
1	15090351	3	0.15991237677985
1	15090351	4	0.13746017296313
1	15090351	5	0.11823213283067
1	15090351	6	0.10297568759974
1	15090351	7	0.095423563777994
1	15090351	8	0.080805599901756
1	15090351	9	0.080991277862384
1	15090351	10	0.069352905931696
1	15090351	11	0.061425471540644
1	15090351	12	0.061191912025541
1	15090351	13	0.06048309178744
1	15090351	14	0.051217988757027
1	15090351	15	0.05010989010989
1	15090351	16	0.053422370617696
1	15090351	17	0.043824701195219
1	15090351	18	0.041754756871036
1	15090351	19	0.042881165919283
1	15090351	20	0.039317721884938
1	15090351	21	0.039269406392694
1	15090351	22	0.033426183844011
1	15090351	23	0.037533512064343
1	15090351	24	0.033438929954241
1	15090351	25	0.036879432624113
vector 2  abilene_network.node[2].content_store  hit_node[2]  ETV
2	15090351	1	0.24835387124074
2	15090351	2	0.16890216985297
2	15090351	3	0.12437560148481
2	15090351	4	0.10764360018091
2	15090351	5	0.090343521774412
2	15090351	6	0.079996872067563
2	15090351	7	0.069036349022059
2	15090351	8	0.064164164164164
2	15090351	9	0.0586791610888
2	15090351	10	0.05630221576462
2	15090351	11	0.05074940836182
2	15090351	12	0.046409310246949
2	15090351	13	0.043478260869565
2	15090351	14	0.04022894521668
2	15090351	15	0.040966746657525
2	15090351	16	0.036705794671138
2	15090351	17	0.034469328140214
2	15090351	18	0.0279632721202
2	15090351	19	0.030590262817751
2	15090351	20	0.026590909090909
2	15090351	21	0.030842230130486
2	15090351	22	0.030487804878049
2	15090351	23	0.032249674902471
2	15090351	24	0.028802153432032
2	15090351	25	0.02751528627015
vector 3  abilene_network.node[3].content_store  hit_node[3]  ETV
3	15090351	1	0.22670259221407
3	15090351	2	0.14768974442891
3	15090351	3	0.11231271383067
3	15090351	4	0.089721967908254
3	15090351	5	0.079018292333276
3	15090351	6	0.067874190806251
3	15090351	7	0.058648628558686
3	15090351	8	0.054248038724754
3	15090351	9	0.049770852428964
3	15090351	10	0.046704670467047
3	15090351	11	0.042824452435436
3	15090351	12	0.040706515381916
3	15090351	13	0.039483675018983
3	15090351	14	0.029719093499796
3	15090351	15	0.031206072533033
3	15090351	16	0.028240740740741
3	15090351	17	0.028225163450805
3	15090351	18	0.028797574941058
3	15090351	19	0.02661934338953
3	15090351	20	0.020381693533445
3	15090351	21	0.021297006907137
3	15090351	22	0.02451768488746
3	15090351	23	0.017409766454352
3	15090351	24	0.024218405988551
3	15090351	25	0.020361990950226
vector 4  abilene_network.node[4].content_store  hit_node[4]  ETV
4	15090351	1	0.21322532594688
4	15090351	2	0.1395646941872
4	15090351	3	0.10615211382946
4	15090351	4	0.08387069933852
4	15090351	5	0.074474414914716
4	15090351	6	0.064137155705453
4	15090351	7	0.056395274990474
4	15090351	8	0.053442157558552
4	15090351	9	0.043137254901961
4	15090351	10	0.037116040955631
4	15090351	11	0.041197118049141
4	15090351	12	0.035096391497776
4	15090351	13	0.034571062740077
4	15090351	14	0.033146645330895
4	15090351	15	0.03207100591716
4	15090351	16	0.028269007357687
4	15090351	17	0.028940638040113
4	15090351	18	0.022475106685633
4	15090351	19	0.023000445169907
4	15090351	20	0.022121825829568
4	15090351	21	0.022910616327848
4	15090351	22	0.021287294669796
4	15090351	23	0.022364217252396
4	15090351	24	0.019480519480519
4	15090351	25	0.019186492709133
vector 5  abilene_network.node[5].content_store  hit_node[5]  ETV
5	15090351	1	0.22216735364367
5	15090351	2	0.15451399248165
5	15090351	3	0.12151539552897
5	15090351	4	0.10019979555803
5	15090351	5	0.083118096389515
5	15090351	6	0.074635677220893
5	15090351	7	0.06934472734914
5	15090351	8	0.060431205894967
5	15090351	9	0.05731412799724
5	15090351	10	0.051926768740928
5	15090351	11	0.048651668274846
5	15090351	12	0.046490181186937
5	15090351	13	0.044168271194352
5	15090351	14	0.041032387395853
5	15090351	15	0.040273259596617
5	15090351	16	0.037533323979234
5	15090351	17	0.036025394950539
5	15090351	18	0.035115099492782
5	15090351	19	0.030588042855974
5	15090351	20	0.031630581867388
5	15090351	21	0.029751332149201
5	15090351	22	0.026508480860135
5	15090351	23	0.027603513174404
5	15090351	24	0.028870590627224
5	15090351	25	0.026586801176965
vector 6  abilene_network.node[6].content_store  hit_node[6]  ETV
6	15090351	1	0.27592165898618
6	15090351	2	0.17650890850461
6	15090351	3	0.13120287567947
6	15090351	4	0.10748845392567
6	15090351	5	0.091083096825292
6	15090351	6	0.072385033284873
6	15090351	7	0.066399092574819
6	15090351	8	0.058898098488542
6	15090351	9	0.053528247966586
6	15090351	10	0.049162679425837
6	15090351	11	0.049125514403292
6	15090351	12	0.0423598490144
6	15090351	13	0.04249887370476
6	15090351	14	0.035534642219698
6	15090351	15	0.034832600608725
6	15090351	16	0.033972602739726
6	15090351	17	0.037122523562224
6	15090351	18	0.034874122988031
6	15090351	19	0.030316154179298
6	15090351	20	0.026813880126183
6	15090351	21	0.026609645996674
6	15090351	22	0.023040320560982
6	15090351	23	0.024905660377358
6	15090351	24	0.024271844660194
6	15090351	25	0.022358859698155
vector 7  abilene_network.node[7].content_store  hit_node[7]  ETV
7	15090351	1	0.29538612336344
7	15090351	2	0.19558133990304
7	15090351	3	0.15248498088476
7	15090351	4	0.11943095072866
7	15090351	5	0.10251028461086
7	15090351	6	0.09079283887468
7	15090351	7	0.078929615471104
7	15090351	8	0.072150792660092
7	15090351	9	0.061959654178674
7	15090351	10	0.061820964039786
7	15090351	11	0.057618651124063
7	15090351	12	0.051631409107207
7	15090351	13	0.047553275453828
7	15090351	14	0.050464527027027
7	15090351	15	0.042337375964719
7	15090351	16	0.040314885496183
7	15090351	17	0.039210789210789
7	15090351	18	0.040555253130103
7	15090351	19	0.034777651083238
7	15090351	20	0.031718061674009
7	15090351	21	0.039938080495356
7	15090351	22	0.028700419219607
7	15090351	23	0.027090301003344
7	15090351	24	0.029264810849393
7	15090351	25	0.026798825256975
vector 8  abilene_network.node[8].content_store  hit_node[8]  ETV
8	15090351	1	0.33794206707422
8	15090351	2	0.23078916006011
8	15090351	3	0.17200526546731
8	15090351	4	0.14450430016067
8	15090351	5	0.11815327363647
8	15090351	6	0.1090834248079
8	15090351	7	0.087464023025264
8	15090351	8	0.087326943556976
8	15090351	9	0.083163887759252
8	15090351	10	0.065426695842451
8	15090351	11	0.057692307692308
8	15090351	12	0.059758912541677
8	15090351	13	0.057248647109086
8	15090351	14	0.050920245398773
8	15090351	15	0.049426020408163
8	15090351	16	0.053817692566431
8	15090351	17	0.048877624909486
8	15090351	18	0.035870864886409
8	15090351	19	0.041844577284372
8	15090351	20	0.047068891741549
8	15090351	21	0.045149754135002
8	15090351	22	0.044547563805104
8	15090351	23	0.046228710462287
8	15090351	24	0.034979423868313
8	15090351	25	0.041006014215418
vector 9  abilene_network.node[9].content_store  hit_node[9]  ETV
9	15090351	1	0.40821236001659
9	15090351	2	0.2773680285075
9	15090351	3	0.21265443654062
9	15090351	4	0.17467975378473
9	15090351	5	0.14886387768104
9	15090351	6	0.13460572576595
9	15090351	7	0.11987104337632
9	15090351	8	0.096836668818593
9	15090351	9	0.095515858549034
9	15090351	10	0.088372093023256
9	15090351	11	0.080994017487345
9	15090351	12	0.067607003891051
9	15090351	13	0.06766116142781
9	15090351	14	0.074761101742552
9	15090351	15	0.059927360774818
9	15090351	16	0.05928338762215
9	15090351	17	0.054172767203514
9	15090351	18	0.05380476556495
9	15090351	19	0.048321048321048
9	15090351	20	0.040609137055838
9	15090351	21	0.044762757385855
9	15090351	22	0.044748858447489
9	15090351	23	0.042126379137412
9	15090351	24	0.047619047619048
9	15090351	25	0.040641711229947
vector 10  abilene_network.node[10].content_store  hit_node[10]  ETV
10	15090351	1	0.40840840840841
10	15090351	2	0.27743495663776
10	15090351	3	0.21563921172309
10	15090351	4	0.17369727047146
10	15090351	5	0.1494372655273
10	15090351	6	0.12417501833293
10	15090351	7	0.11901949202599
10	15090351	8	0.10186418109188
10	15090351	9	0.096484375
10	15090351	10	0.091171617161716
10	15090351	11	0.089154411764706
10	15090351	12	0.064582265504869
10	15090351	13	0.059421841541756
10	15090351	14	0.069937958262831
10	15090351	15	0.071651090342679
10	15090351	16	0.060927152317881
10	15090351	17	0.05980528511822
10	15090351	18	0.048967100229533
10	15090351	19	0.038269550748752
10	15090351	20	0.046242774566474
10	15090351	21	0.04371097234612
10	15090351	22	0.047535211267606
10	15090351	23	0.037488284910965
10	15090351	24	0.042786069651741
10	15090351	25	0.033333333333333
vector 11  abilene_network.client[0]  hdistance[0]  ETV
11	15090351	1	1.9701521094423
11	15090351	2	2.9831340932258
11	15090351	3	3.5681478461748
11	15090351	4	3.9734544184422
11	15090351	5	4.1721364920669
11	15090351	6	4.3997419354839
11	15090351	7	4.5456475583864
11	15090351	8	4.6974555594284
11	15090351	9	4.7678711704635
11	15090351	10	4.8723311546841
11	15090351	11	5.0281557954012
11	15090351	12	5.080123266564
11	15090351	13	5.0559210526316
11	15090351	14	5.1285189718482
11	15090351	15	5.1924969249692
11	15090351	16	5.2184154175589
11	15090351	17	5.1725888324873
11	15090351	18	5.3015873015873
11	15090351	19	5.3835504885993
11	15090351	20	5.3795130142737
11	15090351	21	5.3949044585987
11	15090351	22	5.3697247706422
11	15090351	23	5.3609467455621
11	15090351	24	5.3907815631262
11	15090351	25	5.4437627811861
vector 12  abilene_network.client[1]  hdistance[1]  ETV
12	15090351	1	2.3037665391176
12	15090351	2	2.9877034358047
12	15090351	3	3.4044764188649
12	15090351	4	3.5934805105209
12	15090351	5	3.7926406926407
12	15090351	6	3.9338996548978
12	15090351	7	4.0129640542133
12	15090351	8	4.1950711558487
12	15090351	9	4.180296690757
12	15090351	10	4.2460840890355
12	15090351	11	4.3202898550725
12	15090351	12	4.3498513379584
12	15090351	13	4.3511837655017
12	15090351	14	4.4419452887538
12	15090351	15	4.4474532559639
12	15090351	16	4.4406779661017
12	15090351	17	4.5094202898551
12	15090351	18	4.5292331055429
12	15090351	19	4.5403032721468
12	15090351	20	4.5610589239966
12	15090351	21	4.5509854327335
12	15090351	22	4.6142857142857
12	15090351	23	4.5788423153693
12	15090351	24	4.6245954692557
12	15090351	25	4.6439471007121
vector 13  abilene_network.client[2]  hdistance[2]  ETV
13	15090351	1	2.0974668603595
13	15090351	2	2.6030316540348
13	15090351	3	2.8773302046669
13	15090351	4	3.0130072840791
13	15090351	5	3.1698153258332
13	15090351	6	3.2335115864528
13	15090351	7	3.3143872113677
13	15090351	8	3.3476629136813
13	15090351	9	3.4313280363224
13	15090351	10	3.4863829787234
13	15090351	11	3.4365186182144
13	15090351	12	3.5081300813008
13	15090351	13	3.5093818984547
13	15090351	14	3.5969802555168
13	15090351	15	3.5701384708007
13	15090351	16	3.6217105263158
13	15090351	17	3.6818830242511
13	15090351	18	3.6897895557288
13	15090351	19	3.7066974595843
13	15090351	20	3.6984667802385
13	15090351	21	3.6835222319093
13	15090351	22	3.6896877956481
13	15090351	23	3.7237354085603
13	15090351	24	3.6887351778656
13	15090351	25	3.6684266103485
vector 14  abilene_network.client[3]  hdistance[3]  ETV
14	15090351	1	1.750994958875
14	15090351	2	2.0744218396801
14	15090351	3	2.2270249221184
14	15090351	4	2.3476933514247
14	15090351	5	2.4001297016861
14	15090351	6	2.5070492208756
14	15090351	7	2.5472417840376
14	15090351	8	2.5657894736842
14	15090351	9	2.6060267857143
14	15090351	10	2.6502260583642
14	15090351	11	2.6575151233132
14	15090351	12	2.6433249370277
14	15090351	13	2.6871934604905
14	15090351	14	2.7600246761259
14	15090351	15	2.7308411214953
14	15090351	16	2.780959198282
14	15090351	17	2.7455325232309
14	15090351	18	2.7627494456763
14	15090351	19	2.7651391162029
14	15090351	20	2.8112724167378
14	15090351	21	2.8101265822785
14	15090351	22	2.8071833648393
14	15090351	23	2.8322211630124
14	15090351	24	2.8259109311741
14	15090351	25	2.8163900414938
vector 15  abilene_network.client[4]  hdistance[4]  ETV
15	15090351	1	1.2815014590149
15	15090351	2	1.4617968817297
15	15090351	3	1.5627540650407
15	15090351	4	1.6359485965506
15	15090351	5	1.6700898587933
15	15090351	6	1.6949669547534
15	15090351	7	1.7290379523389
15	15090351	8	1.7653705550017
15	15090351	9	1.7756211180124
15	15090351	10	1.8091603053435
15	15090351	11	1.7985414767548
15	15090351	12	1.8211302211302
15	15090351	13	1.8366047745358
15	15090351	14	1.8302670623145
15	15090351	15	1.8335358444714
15	15090351	16	1.8421400264201
15	15090351	17	1.8599857853589
15	15090351	18	1.8785117691724
15	15090351	19	1.8793235972329
15	15090351	20	1.8884120171674
15	15090351	21	1.8814298169137
15	15090351	22	1.8917748917749
15	15090351	23	1.8938814531549
15	15090351	24	1.8959595959596
15	15090351	25	1.8908296943231
vector 16  abilene_network.client[5]  hdistance[5]  ETV
16	15090351	1	0.71509004346927
16	15090351	2	0.79223252732693
16	15090351	3	0.82331488933602
16	15090351	4	0.85288733566317
16	15090351	5	0.87781756899094
16	15090351	6	0.88643216080402
16	15090351	7	0.902130109384
16	15090351	8	0.91517561298873
16	15090351	9	0.90462107208872
16	15090351	10	0.9113550021106
16	15090351	11	0.92662276575729
16	15090351	12	0.9225
16	15090351	13	0.93709677419355
16	15090351	14	0.92937685459941
16	15090351	15	0.92950717404866
16	15090351	16	0.94179202092871
16	15090351	17	0.95211267605634
16	15090351	18	0.94196428571429
16	15090351	19	0.95736122284795
16	15090351	20	0.95150115473441
16	15090351	21	0.95793991416309
16	15090351	22	0.95376246600181
16	15090351	23	0.95748792270531
16	15090351	24	0.94597349643221
16	15090351	25	0.95329087048832
vector 17  abilene_network.client[6]  hdistance[6]  ETV
17	15090351	1	1.1752760502602
17	15090351	2	1.3971146545178
17	15090351	3	1.5201788153483
17	15090351	4	1.5834445927904
17	15090351	5	1.6285475792988
17	15090351	6	1.7072139303483
17	15090351	7	1.7197341808726
17	15090351	8	1.7540705563094
17	15090351	9	1.7742413027387
17	15090351	10	1.7931623931624
17	15090351	11	1.7996373526745
17	15090351	12	1.8040435458787
17	15090351	13	1.8172669491525
17	15090351	14	1.8315911730546
17	15090351	15	1.836217552534
17	15090351	16	1.8351134846462
17	15090351	17	1.8180505415162
17	15090351	18	1.8479880774963
17	15090351	19	1.8610223642173
17	15090351	20	1.8827527612574
17	15090351	21	1.8831282952548
17	15090351	22	1.8927507447865
17	15090351	23	1.8877737226277
17	15090351	24	1.8764940239044
17	15090351	25	1.8846560846561
vector 18  abilene_network.client[7]  hdistance[7]  ETV
18	15090351	1	1.5402415373766
18	15090351	2	1.9185320145757
18	15090351	3	2.1334712881531
18	15090351	4	2.2922734281309
18	15090351	5	2.3874570446735
18	15090351	6	2.444022289767
18	15090351	7	2.5067966903073
18	15090351	8	2.5615026595745
18	15090351	9	2.6027397260274
18	15090351	10	2.6006739679865
18	15090351	11	2.639293598234
18	15090351	12	2.6553106212425
18	15090351	13	2.6859504132231
18	15090351	14	2.7045990566038
18	15090351	15	2.705
18	15090351	16	2.7032348804501
18	15090351	17	2.7408707865169
18	15090351	18	2.72166538165
18	15090351	19	2.7741686001547
18	15090351	20	2.8091286307054
18	15090351	21	2.7591436217663
18	15090351	22	2.8182674199623
18	15090351	23	2.7894230769231
18	15090351	24	2.7895855472901
18	15090351	25	2.8078078078078
vector 19  abilene_network.client[8]  hdistance[8]  ETV
19	15090351	1	1.7186800127977
19	15090351	2	2.3507096313487
19	15090351	3	2.6989303417689
19	15090351	4	2.9019607843137
19	15090351	5	3.0692063492064
19	15090351	6	3.15977539561
19	15090351	7	3.276988206834
19	15090351	8	3.3034055727554
19	15090351	9	3.3291950340408
19	15090351	10	3.4484029484029
19	15090351	11	3.5129186602871
19	15090351	12	3.526158445441
19	15090351	13	3.5139821029083
19	15090351	14	3.5348410757946
19	15090351	15	3.5947467166979
19	15090351	16	3.6025806451613
19	15090351	17	3.6
19	15090351	18	3.6295436968291
19	15090351	19	3.6297229219144
19	15090351	20	3.6144278606965
19	15090351	21	3.6333615580017
19	15090351	22	3.6315315315315
19	15090351	23	3.6669691470054
19	15090351	24	3.6962663975782
19	15090351	25	3.6898395721925
vector 20  abilene_network.client[9]  hdistance[9]  ETV
20	15090351	1	1.59594353712
20	15090351	2	2.4979957117554
20	15090351	3	3.012285012285
20	15090351	4	3.321018651363
20	15090351	5	3.5700362647325
20	15090351	6	3.7065504490227
20	15090351	7	3.8887530562347
20	15090351	8	3.9902488231338
20	15090351	9	4.0660091047041
20	15090351	10	4.152972027972
20	15090351	11	4.1691281562649
20	15090351	12	4.2771385692846
20	15090351	13	4.3052054794521
20	15090351	14	4.2931332948644
20	15090351	15	4.4061728395062
20	15090351	16	4.3933333333333
20	15090351	17	4.4424379232506
20	15090351	18	4.5023547880691
20	15090351	19	4.5116666666667
20	15090351	20	4.5278969957081
20	15090351	21	4.4913083257091
20	15090351	22	4.5336405529954
20	15090351	23	4.5396341463415
20	15090351	24	4.5632530120482
20	15090351	25	4.5798045602606
vector 21  abilene_network.client[10]  hdistance[10]  ETV
21	15090351	1	1.9610303203118
21	15090351	2	2.9498533186652
21	15090351	3	3.5823949464433
21	15090351	4	3.9785726934656
21	15090351	5	4.2175446330174
21	15090351	6	4.4669907881269
21	15090351	7	4.5391464537918
21	15090351	8	4.6988283942109
21	15090351	9	4.8004856333468
21	15090351	10	4.8763371844245
21	15090351	11	4.9455492424242
21	15090351	12	5.1133858267717
21	15090351	13	5.1336278299282
21	15090351	14	5.1304849884527
21	15090351	15	5.1660305343511
21	15090351	16	5.218009478673
21	15090351	17	5.2951635846373
21	15090351	18	5.3505074160812
21	15090351	19	5.3310867733783
21	15090351	20	5.4460370994941
21	15090351	21	5.419384057971
21	15090351	22	5.4176313446126
21	15090351	23	5.4534220532319
21	15090351	24	5.4398382204247
21	15090351	25	5.5310796074155
