version 2
run General-4-20150612-18:54:01-395
attr D lce
attr F spr
attr R random
attr a 1
attr configname General
attr datetime 20150612-18:54:01
attr experiment General
attr inifile omnetpp.ini
attr iterationvars "$net=abilene, $rep=0, $a=1, $F=spr, $ttl=1000, $D=lce, $R=random, $window=60, $variance=0.05, $mytime=1800"
attr iterationvars2 "$net=abilene, $rep=0, $a=1, $F=spr, $ttl=1000, $D=lce, $R=random, $window=60, $variance=0.05, $mytime=1800, $repetition=0"
attr measurement "$net=abilene, $rep=0, $a=1, $F=spr, $ttl=1000, $D=lce, $R=random, $window=60, $variance=0.05, $mytime=1800"
attr mytime 1800
attr net abilene
attr network networks.${net=abilene}_network
attr processid 395
attr rep 0
attr repetition 0
attr replication #0
attr resultdir results
attr runnumber 4
attr seedset 0
attr ttl 1000
attr variance 0.05
attr window 60

vector 0  abilene_network.node[0].content_store  hit_node[0]  ETV
0	16225828	1	0
0	16225828	2	0
0	16225828	3	0
0	16225828	4	0
0	16225828	5	0
0	16225828	6	0
0	16225828	7	0
0	16225828	8	0
0	16225828	9	0
0	16225828	10	0
0	16225828	11	0
0	16225828	12	0
0	16225828	13	0
0	16225828	14	0
0	16225828	15	0
0	16225828	16	0
0	16225828	17	0
0	16225828	18	0
0	16225828	19	0
0	16225828	20	0
0	16225828	21	0
0	16225828	22	0
0	16225828	23	0
0	16225828	24	0
0	16225828	25	0
vector 1  abilene_network.node[1].content_store  hit_node[1]  ETV
1	16225828	1	0
1	16225828	2	0
1	16225828	3	0
1	16225828	4	0
1	16225828	5	0
1	16225828	6	0
1	16225828	7	0
1	16225828	8	0
1	16225828	9	0
1	16225828	10	0
1	16225828	11	0
1	16225828	12	0
1	16225828	13	0
1	16225828	14	0
1	16225828	15	0
1	16225828	16	0
1	16225828	17	0
1	16225828	18	0
1	16225828	19	0
1	16225828	20	0
1	16225828	21	0
1	16225828	22	0
1	16225828	23	0
1	16225828	24	0
1	16225828	25	0
vector 2  abilene_network.node[2].content_store  hit_node[2]  ETV
2	16225828	1	0
2	16225828	2	0
2	16225828	3	0
2	16225828	4	0
2	16225828	5	0
2	16225828	6	0
2	16225828	7	0
2	16225828	8	0
2	16225828	9	0
2	16225828	10	0
2	16225828	11	0
2	16225828	12	0
2	16225828	13	0
2	16225828	14	0
2	16225828	15	0
2	16225828	16	0
2	16225828	17	0
2	16225828	18	0
2	16225828	19	0
2	16225828	20	0
2	16225828	21	0
2	16225828	22	0
2	16225828	23	0
2	16225828	24	0
2	16225828	25	0
vector 3  abilene_network.node[3].content_store  hit_node[3]  ETV
3	16225828	1	0
3	16225828	2	0
3	16225828	3	0
3	16225828	4	0
3	16225828	5	0
3	16225828	6	0
3	16225828	7	0
3	16225828	8	0
3	16225828	9	0
3	16225828	10	0
3	16225828	11	0
3	16225828	12	0
3	16225828	13	0
3	16225828	14	0
3	16225828	15	0
3	16225828	16	0
3	16225828	17	0
3	16225828	18	0
3	16225828	19	0
3	16225828	20	0
3	16225828	21	0
3	16225828	22	0
3	16225828	23	0
3	16225828	24	0
3	16225828	25	0
vector 4  abilene_network.node[4].content_store  hit_node[4]  ETV
4	16225828	1	0
4	16225828	2	0
4	16225828	3	0
4	16225828	4	0
4	16225828	5	0
4	16225828	6	0
4	16225828	7	0
4	16225828	8	0
4	16225828	9	0
4	16225828	10	0
4	16225828	11	0
4	16225828	12	0
4	16225828	13	0
4	16225828	14	0
4	16225828	15	0
4	16225828	16	0
4	16225828	17	0
4	16225828	18	0
4	16225828	19	0
4	16225828	20	0
4	16225828	21	0
4	16225828	22	0
4	16225828	23	0
4	16225828	24	0
4	16225828	25	0
vector 5  abilene_network.node[5].content_store  hit_node[5]  ETV
5	16225828	1	0
5	16225828	2	0
5	16225828	3	0
5	16225828	4	0
5	16225828	5	0
5	16225828	6	0
5	16225828	7	0
5	16225828	8	0
5	16225828	9	0
5	16225828	10	0
5	16225828	11	0
5	16225828	12	0
5	16225828	13	0
5	16225828	14	0
5	16225828	15	0
5	16225828	16	0
5	16225828	17	0
5	16225828	18	0
5	16225828	19	0
5	16225828	20	0
5	16225828	21	0
5	16225828	22	0
5	16225828	23	0
5	16225828	24	0
5	16225828	25	0
vector 6  abilene_network.node[6].content_store  hit_node[6]  ETV
6	16225828	1	0
6	16225828	2	0
6	16225828	3	0
6	16225828	4	0
6	16225828	5	0
6	16225828	6	0
6	16225828	7	0
6	16225828	8	0
6	16225828	9	0
6	16225828	10	0
6	16225828	11	0
6	16225828	12	0
6	16225828	13	0
6	16225828	14	0
6	16225828	15	0
6	16225828	16	0
6	16225828	17	0
6	16225828	18	0
6	16225828	19	0
6	16225828	20	0
6	16225828	21	0
6	16225828	22	0
6	16225828	23	0
6	16225828	24	0
6	16225828	25	0
vector 7  abilene_network.node[7].content_store  hit_node[7]  ETV
7	16225828	1	0
7	16225828	2	0
7	16225828	3	0
7	16225828	4	0
7	16225828	5	0
7	16225828	6	0
7	16225828	7	0
7	16225828	8	0
7	16225828	9	0
7	16225828	10	0
7	16225828	11	0
7	16225828	12	0
7	16225828	13	0
7	16225828	14	0
7	16225828	15	0
7	16225828	16	0
7	16225828	17	0
7	16225828	18	0
7	16225828	19	0
7	16225828	20	0
7	16225828	21	0
7	16225828	22	0
7	16225828	23	0
7	16225828	24	0
7	16225828	25	0
vector 8  abilene_network.node[8].content_store  hit_node[8]  ETV
8	16225828	1	0
8	16225828	2	0
8	16225828	3	0
8	16225828	4	0
8	16225828	5	0
8	16225828	6	0
8	16225828	7	0
8	16225828	8	0
8	16225828	9	0
8	16225828	10	0
8	16225828	11	0
8	16225828	12	0
8	16225828	13	0
8	16225828	14	0
8	16225828	15	0
8	16225828	16	0
8	16225828	17	0
8	16225828	18	0
8	16225828	19	0
8	16225828	20	0
8	16225828	21	0
8	16225828	22	0
8	16225828	23	0
8	16225828	24	0
8	16225828	25	0
vector 9  abilene_network.node[9].content_store  hit_node[9]  ETV
9	16225828	1	0
9	16225828	2	0
9	16225828	3	0
9	16225828	4	0
9	16225828	5	0
9	16225828	6	0
9	16225828	7	0
9	16225828	8	0
9	16225828	9	0
9	16225828	10	0
9	16225828	11	0
9	16225828	12	0
9	16225828	13	0
9	16225828	14	0
9	16225828	15	0
9	16225828	16	0
9	16225828	17	0
9	16225828	18	0
9	16225828	19	0
9	16225828	20	0
9	16225828	21	0
9	16225828	22	0
9	16225828	23	0
9	16225828	24	0
9	16225828	25	0
vector 10  abilene_network.node[10].content_store  hit_node[10]  ETV
10	16225828	1	0
10	16225828	2	0
10	16225828	3	0
10	16225828	4	0
10	16225828	5	0
10	16225828	6	0
10	16225828	7	0
10	16225828	8	0
10	16225828	9	0
10	16225828	10	0
10	16225828	11	0
10	16225828	12	0
10	16225828	13	0
10	16225828	14	0
10	16225828	15	0
10	16225828	16	0
10	16225828	17	0
10	16225828	18	0
10	16225828	19	0
10	16225828	20	0
10	16225828	21	0
10	16225828	22	0
10	16225828	23	0
10	16225828	24	0
10	16225828	25	0
vector 11  abilene_network.client[0]  hdistance[0]  ETV
11	16225828	1	6
11	16225828	2	6
11	16225828	3	6
11	16225828	4	6
11	16225828	5	6
11	16225828	6	6
11	16225828	7	6
11	16225828	8	6
11	16225828	9	6
11	16225828	10	6
11	16225828	11	6
11	16225828	12	6
11	16225828	13	6
11	16225828	14	6
11	16225828	15	6
11	16225828	16	6
11	16225828	17	6
11	16225828	18	6
11	16225828	19	6
11	16225828	20	6
11	16225828	21	6
11	16225828	22	6
11	16225828	23	6
11	16225828	24	6
11	16225828	25	6
vector 12  abilene_network.client[1]  hdistance[1]  ETV
12	16225828	1	5
12	16225828	2	5
12	16225828	3	5
12	16225828	4	5
12	16225828	5	5
12	16225828	6	5
12	16225828	7	5
12	16225828	8	5
12	16225828	9	5
12	16225828	10	5
12	16225828	11	5
12	16225828	12	5
12	16225828	13	5
12	16225828	14	5
12	16225828	15	5
12	16225828	16	5
12	16225828	17	5
12	16225828	18	5
12	16225828	19	5
12	16225828	20	5
12	16225828	21	5
12	16225828	22	5
12	16225828	23	5
12	16225828	24	5
12	16225828	25	5
vector 13  abilene_network.client[2]  hdistance[2]  ETV
13	16225828	1	4
13	16225828	2	4
13	16225828	3	4
13	16225828	4	4
13	16225828	5	4
13	16225828	6	4
13	16225828	7	4
13	16225828	8	4
13	16225828	9	4
13	16225828	10	4
13	16225828	11	4
13	16225828	12	4
13	16225828	13	4
13	16225828	14	4
13	16225828	15	4
13	16225828	16	4
13	16225828	17	4
13	16225828	18	4
13	16225828	19	4
13	16225828	20	4
13	16225828	21	4
13	16225828	22	4
13	16225828	23	4
13	16225828	24	4
13	16225828	25	4
vector 14  abilene_network.client[3]  hdistance[3]  ETV
14	16225828	1	3
14	16225828	2	3
14	16225828	3	3
14	16225828	4	3
14	16225828	5	3
14	16225828	6	3
14	16225828	7	3
14	16225828	8	3
14	16225828	9	3
14	16225828	10	3
14	16225828	11	3
14	16225828	12	3
14	16225828	13	3
14	16225828	14	3
14	16225828	15	3
14	16225828	16	3
14	16225828	17	3
14	16225828	18	3
14	16225828	19	3
14	16225828	20	3
14	16225828	21	3
14	16225828	22	3
14	16225828	23	3
14	16225828	24	3
14	16225828	25	3
vector 15  abilene_network.client[4]  hdistance[4]  ETV
15	16225828	1	2
15	16225828	2	2
15	16225828	3	2
15	16225828	4	2
15	16225828	5	2
15	16225828	6	2
15	16225828	7	2
15	16225828	8	2
15	16225828	9	2
15	16225828	10	2
15	16225828	11	2
15	16225828	12	2
15	16225828	13	2
15	16225828	14	2
15	16225828	15	2
15	16225828	16	2
15	16225828	17	2
15	16225828	18	2
15	16225828	19	2
15	16225828	20	2
15	16225828	21	2
15	16225828	22	2
15	16225828	23	2
15	16225828	24	2
15	16225828	25	2
vector 16  abilene_network.client[5]  hdistance[5]  ETV
16	16225828	1	1
16	16225828	2	1
16	16225828	3	1
16	16225828	4	1
16	16225828	5	1
16	16225828	6	1
16	16225828	7	1
16	16225828	8	1
16	16225828	9	1
16	16225828	10	1
16	16225828	11	1
16	16225828	12	1
16	16225828	13	1
16	16225828	14	1
16	16225828	15	1
16	16225828	16	1
16	16225828	17	1
16	16225828	18	1
16	16225828	19	1
16	16225828	20	1
16	16225828	21	1
16	16225828	22	1
16	16225828	23	1
16	16225828	24	1
16	16225828	25	1
vector 17  abilene_network.client[6]  hdistance[6]  ETV
17	16225828	1	2
17	16225828	2	2
17	16225828	3	2
17	16225828	4	2
17	16225828	5	2
17	16225828	6	2
17	16225828	7	2
17	16225828	8	2
17	16225828	9	2
17	16225828	10	2
17	16225828	11	2
17	16225828	12	2
17	16225828	13	2
17	16225828	14	2
17	16225828	15	2
17	16225828	16	2
17	16225828	17	2
17	16225828	18	2
17	16225828	19	2
17	16225828	20	2
17	16225828	21	2
17	16225828	22	2
17	16225828	23	2
17	16225828	24	2
17	16225828	25	2
vector 18  abilene_network.client[7]  hdistance[7]  ETV
18	16225828	1	3
18	16225828	2	3
18	16225828	3	3
18	16225828	4	3
18	16225828	5	3
18	16225828	6	3
18	16225828	7	3
18	16225828	8	3
18	16225828	9	3
18	16225828	10	3
18	16225828	11	3
18	16225828	12	3
18	16225828	13	3
18	16225828	14	3
18	16225828	15	3
18	16225828	16	3
18	16225828	17	3
18	16225828	18	3
18	16225828	19	3
18	16225828	20	3
18	16225828	21	3
18	16225828	22	3
18	16225828	23	3
18	16225828	24	3
18	16225828	25	3
vector 19  abilene_network.client[8]  hdistance[8]  ETV
19	16225828	1	4
19	16225828	2	4
19	16225828	3	4
19	16225828	4	4
19	16225828	5	4
19	16225828	6	4
19	16225828	7	4
19	16225828	8	4
19	16225828	9	4
19	16225828	10	4
19	16225828	11	4
19	16225828	12	4
19	16225828	13	4
19	16225828	14	4
19	16225828	15	4
19	16225828	16	4
19	16225828	17	4
19	16225828	18	4
19	16225828	19	4
19	16225828	20	4
19	16225828	21	4
19	16225828	22	4
19	16225828	23	4
19	16225828	24	4
19	16225828	25	4
vector 20  abilene_network.client[9]  hdistance[9]  ETV
20	16225828	1	5
20	16225828	2	5
20	16225828	3	5
20	16225828	4	5
20	16225828	5	5
20	16225828	6	5
20	16225828	7	5
20	16225828	8	5
20	16225828	9	5
20	16225828	10	5
20	16225828	11	5
20	16225828	12	5
20	16225828	13	5
20	16225828	14	5
20	16225828	15	5
20	16225828	16	5
20	16225828	17	5
20	16225828	18	5
20	16225828	19	5
20	16225828	20	5
20	16225828	21	5
20	16225828	22	5
20	16225828	23	5
20	16225828	24	5
20	16225828	25	5
vector 21  abilene_network.client[10]  hdistance[10]  ETV
21	16225828	1	6
21	16225828	2	6
21	16225828	3	6
21	16225828	4	6
21	16225828	5	6
21	16225828	6	6
21	16225828	7	6
21	16225828	8	6
21	16225828	9	6
21	16225828	10	6
21	16225828	11	6
21	16225828	12	6
21	16225828	13	6
21	16225828	14	6
21	16225828	15	6
21	16225828	16	6
21	16225828	17	6
21	16225828	18	6
21	16225828	19	6
21	16225828	20	6
21	16225828	21	6
21	16225828	22	6
21	16225828	23	6
21	16225828	24	6
21	16225828	25	6
