file 19149 1434129336                                           
version 2
run General-4-20150612-19:13:56-495
attr D lce
attr F spr
attr R random
attr a 1
attr configname General
attr datetime 20150612-19:13:56
attr experiment General
attr inifile omnetpp.ini
attr iterationvars "$net=abilene, $rep=0, $a=1, $F=spr, $ttl=1000, $D=lce, $R=random, $window=60, $variance=0.05, $mytime=1800"
attr iterationvars2 "$net=abilene, $rep=0, $a=1, $F=spr, $ttl=1000, $D=lce, $R=random, $window=60, $variance=0.05, $mytime=1800, $repetition=0"
attr measurement "$net=abilene, $rep=0, $a=1, $F=spr, $ttl=1000, $D=lce, $R=random, $window=60, $variance=0.05, $mytime=1800"
attr mytime 1800
attr net abilene
attr network networks.${net=abilene}_network
attr processid 495
attr rep 0
attr repetition 0
attr replication #0
attr resultdir results
attr runnumber 4
attr seedset 0
attr ttl 1000
attr variance 0.05
attr window 60

vector 0  abilene_network.node[0].content_store  hit_node[0]  ETV
0	911 773 14553503 14553503 1 25 25 0.055276381909548 0.58406708595388 4.0760009094211 1.0599125828195
vector 1  abilene_network.node[1].content_store  hit_node[1]  ETV
1	1750 779 14553503 14553503 1 25 25 0.051465332380272 0.44642459895692 3.2493872301096 0.64657448939532
vector 2  abilene_network.node[2].content_store  hit_node[2]  ETV
2	2595 782 14553503 14553503 1 25 25 0.037687730235194 0.39137292388577 2.6560294756061 0.45414839597833
vector 3  abilene_network.node[3].content_store  hit_node[3]  ETV
3	3443 770 14553503 14553503 1 25 25 0.035168903285516 0.36384740046428 2.3350550166351 0.365557723973
vector 4  abilene_network.node[4].content_store  hit_node[4]  ETV
4	4279 781 14553503 14553503 1 25 25 0.030866640284923 0.33658015205598 2.1923493385138 0.3194265081246
vector 5  abilene_network.node[5].content_store  hit_node[5]  ETV
5	5126 781 14553503 14553503 1 25 25 0.040676117775354 0.32659065833027 2.4176471749331 0.34637110739191
vector 6  abilene_network.node[6].content_store  hit_node[6]  ETV
6	5973 781 14553503 14553503 1 25 25 0.035326842837274 0.42077915971128 2.6472156255918 0.480347711962
vector 7  abilene_network.node[7].content_store  hit_node[7]  ETV
7	6820 776 14553503 14553503 1 25 25 0.043478260869565 0.44162003730349 2.9804610424085 0.57824251820181
vector 8  abilene_network.node[8].content_store  hit_node[8]  ETV
8	7662 778 14553503 14553503 1 25 25 0.052863436123348 0.4945658963148 3.4283549663649 0.74507917061929
vector 9  abilene_network.node[9].content_store  hit_node[9]  ETV
9	8506 775 14553503 14553503 1 25 25 0.055165496489468 0.58009124844463 3.981869946983 1.0287104168467
vector 10  abilene_network.node[10].content_store  hit_node[10]  ETV
10	9350 786 14553503 14553503 1 25 25 0.053763440860215 0.58608608608609 3.9840097388051 1.0458866559411
vector 11  abilene_network.client[0]  hdistance[0]  ETV
11	10192 767 14553503 14553503 1 25 25 0.97569838746309 5.2177914110429 103.49232674869 458.06412310949
vector 12  abilene_network.client[1]  hdistance[1]  ETV
12	11015 764 14553503 14553503 1 25 25 1.4077237942694 4.4481707317073 92.929669630392 360.07953812739
vector 13  abilene_network.client[2]  hdistance[2]  ETV
13	11835 765 14553503 14553503 1 25 25 1.4015835102618 3.5533262935586 76.80252484117 243.33911111313
vector 14  abilene_network.client[3]  hdistance[3]  ETV
14	12656 763 14553503 14553503 1 25 25 1.2684560838735 2.7448132780083 59.805489775986 146.38588385111
vector 15  abilene_network.client[4]  hdistance[4]  ETV
15	13475 761 14553503 14553503 1 25 25 1.0099570137731 1.8585858585859 41.305578723444 69.291459417045
vector 16  abilene_network.client[5]  hdistance[5]  ETV
16	14292 775 14553503 14553503 1 25 25 0.61809149244463 0.93842887473461 21.568238730666 18.751747898837
vector 17  abilene_network.client[6]  hdistance[6]  ETV
17	15123 755 14553503 14553503 1 25 25 0.88868751580545 1.8416334661355 40.633070646508 67.377428402717
vector 18  abilene_network.client[7]  hdistance[7]  ETV
18	15934 765 14553503 14553503 1 25 25 1.0568320278503 2.7351063829787 58.367560194726 140.47503818575
vector 19  abilene_network.client[8]  hdistance[8]  ETV
19	16755 764 14553503 14553503 1 25 25 1.0448436460412 3.5689839572193 74.624548518753 232.65301865322
vector 20  abilene_network.client[9]  hdistance[9]  ETV
20	17575 753 14553503 14553503 1 25 25 0.82527948893452 4.409978308026 88.447895994493 334.0128211717
vector 21  abilene_network.client[10]  hdistance[10]  ETV
21	18386 763 14553503 14553503 1 25 25 0.98900256907198 5.2213740458015 104.59928628984 468.1148665161
