version 2
run General-4-20150612-19:13:56-495
attr D lce
attr F spr
attr R random
attr a 1
attr configname General
attr datetime 20150612-19:13:56
attr experiment General
attr inifile omnetpp.ini
attr iterationvars "$net=abilene, $rep=0, $a=1, $F=spr, $ttl=1000, $D=lce, $R=random, $window=60, $variance=0.05, $mytime=1800"
attr iterationvars2 "$net=abilene, $rep=0, $a=1, $F=spr, $ttl=1000, $D=lce, $R=random, $window=60, $variance=0.05, $mytime=1800, $repetition=0"
attr measurement "$net=abilene, $rep=0, $a=1, $F=spr, $ttl=1000, $D=lce, $R=random, $window=60, $variance=0.05, $mytime=1800"
attr mytime 1800
attr net abilene
attr network networks.${net=abilene}_network
attr processid 495
attr rep 0
attr repetition 0
attr replication #0
attr resultdir results
attr runnumber 4
attr seedset 0
attr ttl 1000
attr variance 0.05
attr window 60

vector 0  abilene_network.node[0].content_store  hit_node[0]  ETV
0	14553503	1	0.58406708595388
0	14553503	2	0.42527298491289
0	14553503	3	0.33814847380982
0	14553503	4	0.28634146341463
0	14553503	5	0.24207080008185
0	14553503	6	0.21000739462657
0	14553503	7	0.20075757575758
0	14553503	8	0.17229842756775
0	14553503	9	0.15585893060296
0	14553503	10	0.149599662874
0	14553503	11	0.12312585188551
0	14553503	12	0.12681704260652
0	14553503	13	0.11755233494364
0	14553503	14	0.099404761904762
0	14553503	15	0.10579796772265
0	14553503	16	0.10055865921788
0	14553503	17	0.084805653710247
0	14553503	18	0.083765752409192
0	14553503	19	0.075878594249201
0	14553503	20	0.07001647446458
0	14553503	21	0.065295169946333
0	14553503	22	0.070460704607046
0	14553503	23	0.065827686350436
0	14553503	24	0.066995073891626
0	14553503	25	0.055276381909548
vector 1  abilene_network.node[1].content_store  hit_node[1]  ETV
1	14553503	1	0.44642459895692
1	14553503	2	0.32867423769708
1	14553503	3	0.25853491164865
1	14553503	4	0.22164912032785
1	14553503	5	0.19623609923011
1	14553503	6	0.16862901616444
1	14553503	7	0.15187421670275
1	14553503	8	0.13150755716316
1	14553503	9	0.12834532374101
1	14553503	10	0.11617418351477
1	14553503	11	0.10930473884469
1	14553503	12	0.10253603357052
1	14553503	13	0.096780564882481
1	14553503	14	0.090947816826411
1	14553503	15	0.079239302694136
1	14553503	16	0.077054794520548
1	14553503	17	0.079493670886076
1	14553503	18	0.064299165994081
1	14553503	19	0.068266209654384
1	14553503	20	0.056991774383079
1	14553503	21	0.058333333333333
1	14553503	22	0.055137844611529
1	14553503	23	0.059422750424448
1	14553503	24	0.051465332380272
1	14553503	25	0.052064631956912
vector 2  abilene_network.node[2].content_store  hit_node[2]  ETV
2	14553503	1	0.39137292388577
2	14553503	2	0.27849433035888
2	14553503	3	0.21780283438502
2	14553503	4	0.18100347112654
2	14553503	5	0.15692399226536
2	14553503	6	0.14144259496372
2	14553503	7	0.12614347616755
2	14553503	8	0.1085413080895
2	14553503	9	0.097838993113275
2	14553503	10	0.086705202312139
2	14553503	11	0.090225563909774
2	14553503	12	0.079419682919533
2	14553503	13	0.076601894973502
2	14553503	14	0.067077344284736
2	14553503	15	0.068238656663094
2	14553503	16	0.062187139006546
2	14553503	17	0.055084745762712
2	14553503	18	0.054135338345865
2	14553503	19	0.053170189098999
2	14553503	20	0.049615653389238
2	14553503	21	0.043668122270742
2	14553503	22	0.047488127968008
2	14553503	23	0.042700827328529
2	14553503	24	0.042459332781913
2	14553503	25	0.037687730235194
vector 3  abilene_network.node[3].content_store  hit_node[3]  ETV
3	14553503	1	0.36384740046428
3	14553503	2	0.25220945261466
3	14553503	3	0.19424
3	14553503	4	0.1647511685455
3	14553503	5	0.13680802848818
3	14553503	6	0.11675423234092
3	14553503	7	0.10366904703275
3	14553503	8	0.092540304217142
3	14553503	9	0.089866534849234
3	14553503	10	0.08130081300813
3	14553503	11	0.073030409768698
3	14553503	12	0.06986626671666
3	14553503	13	0.062516769519721
3	14553503	14	0.052843193566916
3	14553503	15	0.057219092795731
3	14553503	16	0.049312853678254
3	14553503	17	0.048800799467022
3	14553503	18	0.046756899279311
3	14553503	19	0.045218680504077
3	14553503	20	0.038668718737976
3	14553503	21	0.04160094637224
3	14553503	22	0.038006230529595
3	14553503	23	0.04060248853962
3	14553503	24	0.039455782312925
3	14553503	25	0.035168903285516
vector 4  abilene_network.node[4].content_store  hit_node[4]  ETV
4	14553503	1	0.33658015205598
4	14553503	2	0.23710757047233
4	14553503	3	0.1841360918054
4	14553503	4	0.15120291616039
4	14553503	5	0.12844871721941
4	14553503	6	0.1100235174474
4	14553503	7	0.099153567110036
4	14553503	8	0.091542678151919
4	14553503	9	0.079232622161046
4	14553503	10	0.070053673884879
4	14553503	11	0.073464472099558
4	14553503	12	0.062953478446436
4	14553503	13	0.060043294975504
4	14553503	14	0.057640750670241
4	14553503	15	0.04841760181566
4	14553503	16	0.050865948452202
4	14553503	17	0.047065494754749
4	14553503	18	0.044693572496263
4	14553503	19	0.042433697347894
4	14553503	20	0.03960880195599
4	14553503	21	0.039067739771965
4	14553503	22	0.035515320334262
4	14553503	23	0.036434251895691
4	14553503	24	0.035796766743649
4	14553503	25	0.030866640284923
vector 5  abilene_network.node[5].content_store  hit_node[5]  ETV
5	14553503	1	0.32659065833027
5	14553503	2	0.23424746357464
5	14553503	3	0.18731542345432
5	14553503	4	0.15922585704683
5	14553503	5	0.1387944158326
5	14553503	6	0.12440277328735
5	14553503	7	0.11249950097808
5	14553503	8	0.10286040687201
5	14553503	9	0.090113062304547
5	14553503	10	0.087838187367441
5	14553503	11	0.080143072709998
5	14553503	12	0.074098243948742
5	14553503	13	0.070423423991923
5	14553503	14	0.065822273125379
5	14553503	15	0.062089677329236
5	14553503	16	0.060985672492686
5	14553503	17	0.057404651891299
5	14553503	18	0.054145655947756
5	14553503	19	0.050768029159073
5	14553503	20	0.05465551005875
5	14553503	21	0.049753097922296
5	14553503	22	0.046271993778555
5	14553503	23	0.043293115684883
5	14553503	24	0.043228890069039
5	14553503	25	0.040676117775354
vector 6  abilene_network.node[6].content_store  hit_node[6]  ETV
6	14553503	1	0.42077915971128
6	14553503	2	0.28948180135719
6	14553503	3	0.23039190897598
6	14553503	4	0.18161462868516
6	14553503	5	0.15848000589145
6	14553503	6	0.13541318166611
6	14553503	7	0.11324888084579
6	14553503	8	0.10774588433938
6	14553503	9	0.09901222953904
6	14553503	10	0.090538647650579
6	14553503	11	0.080859214666849
6	14553503	12	0.076774862902031
6	14553503	13	0.070886075949367
6	14553503	14	0.060570071258907
6	14553503	15	0.064293304994687
6	14553503	16	0.05848623853211
6	14553503	17	0.054964894684052
6	14553503	18	0.050865569566147
6	14553503	19	0.050923839567373
6	14553503	20	0.043953488372093
6	14553503	21	0.046089727874479
6	14553503	22	0.044949625419788
6	14553503	23	0.042730588848359
6	14553503	24	0.035326842837274
6	14553503	25	0.038834951456311
vector 7  abilene_network.node[7].content_store  hit_node[7]  ETV
7	14553503	1	0.44162003730349
7	14553503	2	0.325344463893
7	14553503	3	0.25015256926645
7	14553503	4	0.204089388872
7	14553503	5	0.17425760612133
7	14553503	6	0.14659520807062
7	14553503	7	0.13310045772103
7	14553503	8	0.12172532415983
7	14553503	9	0.10299255658514
7	14553503	10	0.10485157995531
7	14553503	11	0.10164502164502
7	14553503	12	0.088515406162465
7	14553503	13	0.081833060556465
7	14553503	14	0.075929978118162
7	14553503	15	0.066712517193948
7	14553503	16	0.067210279219175
7	14553503	17	0.064657393096342
7	14553503	18	0.064920590693787
7	14553503	19	0.058409157616672
7	14553503	20	0.051651651651652
7	14553503	21	0.056226175349428
7	14553503	22	0.050641236435383
7	14553503	23	0.057482993197279
7	14553503	24	0.046418128654971
7	14553503	25	0.043478260869565
vector 8  abilene_network.node[8].content_store  hit_node[8]  ETV
8	14553503	1	0.4945658963148
8	14553503	2	0.35823658085142
8	14553503	3	0.28822933707252
8	14553503	4	0.23209827224608
8	14553503	5	0.20485859318347
8	14553503	6	0.17657939669892
8	14553503	7	0.15710971163407
8	14553503	8	0.14065085493657
8	14553503	9	0.12833999579213
8	14553503	10	0.10765443151298
8	14553503	11	0.095717884130982
8	14553503	12	0.098214285714286
8	14553503	13	0.090512223515716
8	14553503	14	0.089380255372158
8	14553503	15	0.086829268292683
8	14553503	16	0.082442221455674
8	14553503	17	0.078937661379565
8	14553503	18	0.063479308959421
8	14553503	19	0.072758770030316
8	14553503	20	0.06966681090437
8	14553503	21	0.07616043262731
8	14553503	22	0.060677328316087
8	14553503	23	0.065100342633382
8	14553503	24	0.057291666666667
8	14553503	25	0.052863436123348
vector 9  abilene_network.node[9].content_store  hit_node[9]  ETV
9	14553503	1	0.58009124844463
9	14553503	2	0.43043009861606
9	14553503	3	0.33295894171971
9	14553503	4	0.28231575445017
9	14553503	5	0.22977277553621
9	14553503	6	0.20492214967353
9	14553503	7	0.18698710433763
9	14553503	8	0.16397675919948
9	14553503	9	0.15931461903026
9	14553503	10	0.13361522198732
9	14553503	11	0.12287160607455
9	14553503	12	0.11527237354086
9	14553503	13	0.10868407032499
9	14553503	14	0.10511523327712
9	14553503	15	0.098668280871671
9	14553503	16	0.10879478827362
9	14553503	17	0.095168374816984
9	14553503	18	0.071483474250576
9	14553503	19	0.075348075348075
9	14553503	20	0.06175972927242
9	14553503	21	0.060877350044763
9	14553503	22	0.071232876712329
9	14553503	23	0.055165496489468
9	14553503	24	0.071428571428571
9	14553503	25	0.055614973262032
vector 10  abilene_network.node[10].content_store  hit_node[10]  ETV
10	14553503	1	0.58608608608609
10	14553503	2	0.42895263509006
10	14553503	3	0.34815563415867
10	14553503	4	0.28602150537634
10	14553503	5	0.23759899958316
10	14553503	6	0.20752872158396
10	14553503	7	0.1828115770821
10	14553503	8	0.17010652463382
10	14553503	9	0.145703125
10	14553503	10	0.14108910891089
10	14553503	11	0.14613970588235
10	14553503	12	0.096873398257304
10	14553503	13	0.087259100642398
10	14553503	14	0.10716300056402
10	14553503	15	0.10778816199377
10	14553503	16	0.091390728476821
10	14553503	17	0.081363004172462
10	14553503	18	0.081866870696251
10	14553503	19	0.074875207986689
10	14553503	20	0.070189925681255
10	14553503	21	0.065120428189117
10	14553503	22	0.0625
10	14553503	23	0.059981255857545
10	14553503	24	0.063681592039801
10	14553503	25	0.053763440860215
vector 11  abilene_network.client[0]  hdistance[0]  ETV
11	14553503	1	0.97569838746309
11	14553503	2	1.8478085506857
11	14553503	3	2.4600159404888
11	14553503	4	2.8859452950284
11	14553503	5	3.2024091202409
11	14553503	6	3.5283551449833
11	14553503	7	3.6855934762912
11	14553503	8	3.9601386481802
11	14553503	9	4.0540540540541
11	14553503	10	4.1880415944541
11	14553503	11	4.4011246485473
11	14553503	12	4.4623655913978
11	14553503	13	4.5202628696605
11	14553503	14	4.6101591187271
11	14553503	15	4.6918354818907
11	14553503	16	4.7891737891738
11	14553503	17	4.7248370745836
11	14553503	18	4.9231927710843
11	14553503	19	5.0105433901054
11	14553503	20	5.0125628140704
11	14553503	21	5.0572727272727
11	14553503	22	5.0963302752294
11	14553503	23	5.0866141732283
11	14553503	24	5.1002004008016
11	14553503	25	5.2177914110429
vector 12  abilene_network.client[1]  hdistance[1]  ETV
12	14553503	1	1.4077237942694
12	14553503	2	2.0989449419275
12	14553503	3	2.5686274509804
12	14553503	4	2.8363481228669
12	14553503	5	3.1159482758621
12	14553503	6	3.3269891620407
12	14553503	7	3.4657856093979
12	14553503	8	3.6244813278008
12	14553503	9	3.6698328267477
12	14553503	10	3.7925925925926
12	14553503	11	3.8383838383838
12	14553503	12	3.9079663532905
12	14553503	13	3.9830890642616
12	14553503	14	4.1373025516403
12	14553503	15	4.1095360824742
12	14553503	16	4.1016260162602
12	14553503	17	4.1881331403763
12	14553503	18	4.2471482889734
12	14553503	19	4.2629482071713
12	14553503	20	4.3498293515358
12	14553503	21	4.363324764353
12	14553503	22	4.3336306868867
12	14553503	23	4.4071856287425
12	14553503	24	4.344120819849
12	14553503	25	4.4481707317073
vector 13  abilene_network.client[2]  hdistance[2]  ETV
13	14553503	1	1.4015835102618
13	14553503	2	1.9368615709757
13	14553503	3	2.2804102297806
13	14553503	4	2.4573696927856
13	14553503	5	2.6732924508353
13	14553503	6	2.7635443037975
13	14553503	7	2.8870872641509
13	14553503	8	2.9591558883594
13	14553503	9	3.1119939462732
13	14553503	10	3.1418259023355
13	14553503	11	3.1138502913492
13	14553503	12	3.1746192893401
13	14553503	13	3.2727774710105
13	14553503	14	3.364849187935
13	14553503	15	3.3347381095725
13	14553503	16	3.4001314060447
13	14553503	17	3.4497505345688
13	14553503	18	3.4395946999221
13	14553503	19	3.4661016949153
13	14553503	20	3.4897785349233
13	14553503	21	3.5418848167539
13	14553503	22	3.5378787878788
13	14553503	23	3.5092322643343
13	14553503	24	3.5408866995074
13	14553503	25	3.5533262935586
vector 14  abilene_network.client[3]  hdistance[3]  ETV
14	14553503	1	1.2684560838735
14	14553503	2	1.6344447316275
14	14553503	3	1.8755009696186
14	14553503	4	1.985970250169
14	14553503	5	2.0843035791289
14	14553503	6	2.2279012345679
14	14553503	7	2.2813231850117
14	14553503	8	2.3245614035088
14	14553503	9	2.3570100409074
14	14553503	10	2.4141331142153
14	14553503	11	2.441190144119
14	14553503	12	2.4771011575239
14	14553503	13	2.5310796074155
14	14553503	14	2.5675508945096
14	14553503	15	2.5927770859278
14	14553503	16	2.6234788833214
14	14553503	17	2.6242857142857
14	14553503	18	2.637573964497
14	14553503	19	2.6691236691237
14	14553503	20	2.6780529461998
14	14553503	21	2.6871838111298
14	14553503	22	2.6947069943289
14	14553503	23	2.6714285714286
14	14553503	24	2.7115384615385
14	14553503	25	2.7448132780083
vector 15  abilene_network.client[4]  hdistance[4]  ETV
15	14553503	1	1.0099570137731
15	14553503	2	1.2291505625698
15	14553503	3	1.3440547043181
15	14553503	4	1.437616072936
15	14553503	5	1.499679965863
15	14553503	6	1.5532994923858
15	14553503	7	1.573905377608
15	14553503	8	1.6375415282392
15	14553503	9	1.6647241647242
15	14553503	10	1.6993214588634
15	14553503	11	1.6849065207478
15	14553503	12	1.7100098135427
15	14553503	13	1.7363395225464
15	14553503	14	1.706824925816
15	14553503	15	1.7503037667072
15	14553503	16	1.7575957727873
15	14553503	17	1.7832267235252
15	14553503	18	1.786636294609
15	14553503	19	1.7933947772657
15	14553503	20	1.7965665236052
15	14553503	21	1.8047079337402
15	14553503	22	1.8354978354978
15	14553503	23	1.8154875717017
15	14553503	24	1.8585858585859
15	14553503	25	1.8362445414847
vector 16  abilene_network.client[5]  hdistance[5]  ETV
16	14553503	1	0.61809149244463
16	14553503	2	0.71000331235508
16	14553503	3	0.75113179074447
16	14553503	4	0.78498918289233
16	14553503	5	0.80303349483885
16	14553503	6	0.821608040201
16	14553503	7	0.84715025906736
16	14553503	8	0.86017229953612
16	14553503	9	0.85914972273568
16	14553503	10	0.86196707471507
16	14553503	11	0.88946378174976
16	14553503	12	0.885
16	14553503	13	0.90322580645161
16	14553503	14	0.8973293768546
16	14553503	15	0.89644416718653
16	14553503	16	0.90058862001308
16	14553503	17	0.91478873239437
16	14553503	18	0.90252976190476
16	14553503	19	0.91391794046661
16	14553503	20	0.92455735180908
16	14553503	21	0.92360515021459
16	14553503	22	0.9102447869447
16	14553503	23	0.93236714975845
16	14553503	24	0.9184505606524
16	14553503	25	0.93842887473461
vector 17  abilene_network.client[6]  hdistance[6]  ETV
17	14553503	1	0.88868751580545
17	14553503	2	1.1510912614814
17	14553503	3	1.2850577568004
17	14553503	4	1.391
17	14553503	5	1.4374217772215
17	14553503	6	1.5074552683897
17	14553503	7	1.5746462604678
17	14553503	8	1.592605156038
17	14553503	9	1.6350851221318
17	14553503	10	1.6388888888889
17	14553503	11	1.6844968268359
17	14553503	12	1.6986514522822
17	14553503	13	1.7113347457627
17	14553503	14	1.7266395821242
17	14553503	15	1.7171093267449
17	14553503	16	1.7545030020013
17	14553503	17	1.7574007220217
17	14553503	18	1.7950819672131
17	14553503	19	1.788338658147
17	14553503	20	1.8156329651657
17	14553503	21	1.8093145869947
17	14553503	22	1.8105158730159
17	14553503	23	1.8001824817518
17	14553503	24	1.8416334661355
17	14553503	25	1.8202959830867
vector 18  abilene_network.client[7]  hdistance[7]  ETV
18	14553503	1	1.0568320278503
18	14553503	2	1.4581827568405
18	14553503	3	1.7083601700374
18	14553503	4	1.9295365144519
18	14553503	5	2.0359897172236
18	14553503	6	2.1327098078867
18	14553503	7	2.2229769639693
18	14553503	8	2.2701894317049
18	14553503	9	2.3646690168429
18	14553503	10	2.3601177955406
18	14553503	11	2.3958517210944
18	14553503	12	2.4334334334334
18	14553503	13	2.488986784141
18	14553503	14	2.5368296994696
18	14553503	15	2.5686641697878
18	14553503	16	2.5555555555556
18	14553503	17	2.6018258426966
18	14553503	18	2.5666923670008
18	14553503	19	2.6086620262954
18	14553503	20	2.6583747927031
18	14553503	21	2.6387154326494
18	14553503	22	2.6478342749529
18	14553503	23	2.6887608069164
18	14553503	24	2.7351063829787
18	14553503	25	2.7027027027027
vector 19  abilene_network.client[8]  hdistance[8]  ETV
19	14553503	1	1.0448436460412
19	14553503	2	1.6297861103776
19	14553503	3	2.0091577453889
19	14553503	4	2.3128002745367
19	14553503	5	2.4959949409781
19	14553503	6	2.6870869344179
19	14553503	7	2.7887111379414
19	14553503	8	2.8780487804878
19	14553503	9	2.983220135837
19	14553503	10	3.1078872088271
19	14553503	11	3.1862464183381
19	14553503	12	3.2168075584286
19	14553503	13	3.2189944134078
19	14553503	14	3.2936507936508
19	14553503	15	3.3233082706767
19	14553503	16	3.3784655061251
19	14553503	17	3.3792871553463
19	14553503	18	3.4337722695585
19	14553503	19	3.4089000839631
19	14553503	20	3.4427860696517
19	14553503	21	3.4153976311337
19	14553503	22	3.4851485148515
19	14553503	23	3.455949137148
19	14553503	24	3.4793138244198
19	14553503	25	3.5689839572193
vector 20  abilene_network.client[9]  hdistance[9]  ETV
20	14553503	1	0.82527948893452
20	14553503	2	1.5290886167147
20	14553503	3	2.0940560847981
20	14553503	4	2.4797524314766
20	14553503	5	2.8187108325873
20	14553503	6	3.0630583289543
20	14553503	7	3.2587625723865
20	14553503	8	3.427854034148
20	14553503	9	3.5117157974301
20	14553503	10	3.6781508940253
20	14553503	11	3.7566539923954
20	14553503	12	3.8225324027916
20	14553503	13	3.9250136836344
20	14553503	14	3.9384349827388
20	14553503	15	4.0080098582871
20	14553503	16	3.9387483355526
20	14553503	17	4.0382308845577
20	14553503	18	4.265465935787
20	14553503	19	4.215
20	14553503	20	4.270618556701
20	14553503	21	4.2580054894785
20	14553503	22	4.2847926267281
20	14553503	23	4.3147208121827
20	14553503	24	4.3152610441767
20	14553503	25	4.409978308026
vector 21  abilene_network.client[10]  hdistance[10]  ETV
21	14553503	1	0.98900256907198
21	14553503	2	1.8066470640649
21	14553503	3	2.4423387096774
21	14553503	4	2.9206986899563
21	14553503	5	3.295867045703
21	14553503	6	3.538344337227
21	14553503	7	3.777743715512
21	14553503	8	3.984176126591
21	14553503	9	4.1628940986257
21	14553503	10	4.3072006817213
21	14553503	11	4.2618935468676
21	14553503	12	4.6350785340314
21	14553503	13	4.6468646864687
21	14553503	14	4.6336405529954
21	14553503	15	4.6995544239338
21	14553503	16	4.8090724441435
21	14553503	17	4.9459843638948
21	14553503	18	4.9571317225253
21	14553503	19	4.9014321819714
21	14553503	20	5.0816498316498
21	14553503	21	5.0823529411765
21	14553503	22	5.1487088156723
21	14553503	23	5.1595441595442
21	14553503	24	5.1900910010111
21	14553503	25	5.2213740458015
