version 2
run General-22-20150311-18:59:43-28977
attr D prob_cache
attr F spr
attr R lru
attr a 1
attr configname General
attr datetime 20150311-18:59:43
attr experiment General
attr inifile omnetpp.ini
attr iterationvars "$net=abilene, $rep=0, $a=1, $F=spr, $ttl=1000, $D=prob_cache, $R=lru"
attr iterationvars2 "$net=abilene, $rep=0, $a=1, $F=spr, $ttl=1000, $D=prob_cache, $R=lru, $repetition=0"
attr measurement "$net=abilene, $rep=0, $a=1, $F=spr, $ttl=1000, $D=prob_cache, $R=lru"
attr net abilene
attr network networks.${net=abilene}_network
attr processid 28977
attr rep 0
attr repetition 0
attr replication #0
attr resultdir results
attr runnumber 22
attr seedset 0
attr ttl 1000

vector 0  abilene_network.node[0].content_store  hit_node[0]  ETV
0	536204	1	1
0	536204	2	1
0	536204	3	1
0	536204	4	1
0	536204	5	1
0	536204	6	1
0	536204	7	1
0	536204	8	1
0	536204	9	1
0	536204	10	1
0	536204	11	1
0	536204	12	1
0	536204	13	1
0	536204	14	1
0	536204	15	1
0	536204	16	0.9
0	536204	17	0.875
0	536204	18	1
0	536204	19	1
0	536204	20	1
0	536204	21	0.57142857142857
0	536204	22	0.5
0	536204	23	1
0	536204	24	1
0	536204	25	0.625
0	536204	26	0.75
0	536204	27	1
0	536204	28	1
0	536204	29	1
0	536204	30	1
0	536204	31	0.8
0	536204	32	1
0	536204	33	0.83333333333333
0	536204	34	1
0	536204	35	0.66666666666667
0	536204	36	0
0	536204	37	0
0	536204	38	0
0	536204	39	0.66666666666667
0	536204	40	0
0	536204	41	1
0	536204	42	0.5
0	536204	43	0
0	536204	44	0.75
0	536204	45	0
0	536204	46	0.66666666666667
0	536204	47	0
0	536204	48	0.2
0	536204	49	0
0	536204	50	0
0	536204	51	0.33333333333333
0	536204	52	0
0	536204	53	0.14285714285714
0	536204	54	0
0	536204	55	0
0	536204	56	1
0	536204	57	0
0	536204	58	0.16666666666667
0	536204	59	0
0	536204	60	0
0	536204	61	0.66666666666667
0	536204	62	0.66666666666667
0	536204	63	0
0	536204	64	0.5
0	536204	65	1
0	536204	66	0.66666666666667
0	536204	67	0
0	536204	68	0
0	536204	69	0
0	536204	70	0
0	536204	71	0.5
0	536204	72	0
0	536204	73	0
0	536204	74	0.25
0	536204	75	0
0	536204	76	0.33333333333333
vector 1  abilene_network.node[1].content_store  hit_node[1]  ETV
1	536204	1	1
1	536204	2	1
1	536204	3	1
1	536204	4	1
1	536204	5	1
1	536204	6	0.92307692307692
1	536204	7	1
1	536204	8	0.91666666666667
1	536204	9	1
1	536204	10	0.63157894736842
1	536204	11	0.61111111111111
1	536204	12	0.9375
1	536204	13	0.4
1	536204	14	0.8
1	536204	15	0.4
1	536204	16	0.1
1	536204	17	0.23076923076923
1	536204	18	1
1	536204	19	0.64705882352941
1	536204	20	0.2
1	536204	21	0.35
1	536204	22	0.23076923076923
1	536204	23	0.5
1	536204	24	0.33333333333333
1	536204	25	0
1	536204	26	0.66666666666667
1	536204	27	0.23076923076923
1	536204	28	0.875
1	536204	29	0.78571428571429
1	536204	30	0.8
1	536204	31	0.61538461538462
1	536204	32	0.2
1	536204	33	0.5
1	536204	34	0
1	536204	35	0.125
1	536204	36	0.78571428571429
1	536204	37	0
1	536204	38	0.47058823529412
1	536204	39	0
1	536204	40	0.22222222222222
1	536204	41	0.090909090909091
1	536204	42	1
1	536204	43	0.5
1	536204	44	0.28571428571429
1	536204	45	0.2
1	536204	46	0.22222222222222
1	536204	47	0
1	536204	48	0.63636363636364
1	536204	49	0.88888888888889
1	536204	50	0.1
1	536204	51	0.58333333333333
1	536204	52	0.9375
1	536204	53	0.2
1	536204	54	0.5
1	536204	55	0.22222222222222
1	536204	56	0.42857142857143
1	536204	57	0.63636363636364
1	536204	58	0.66666666666667
1	536204	59	0
1	536204	60	0
1	536204	61	0
1	536204	62	0
1	536204	63	0.33333333333333
1	536204	64	0.625
1	536204	65	0.2
1	536204	66	0.25
1	536204	67	0
1	536204	68	0
1	536204	69	0.71428571428571
1	536204	70	0.61538461538462
1	536204	71	0.5
1	536204	72	0.36363636363636
1	536204	73	0.4
1	536204	74	0
1	536204	75	0
1	536204	76	0
vector 2  abilene_network.node[2].content_store  hit_node[2]  ETV
2	536204	1	1
2	536204	2	1
2	536204	3	1
2	536204	4	1
2	536204	5	0.93617021276596
2	536204	6	0.34615384615385
2	536204	7	0.62962962962963
2	536204	8	0.8
2	536204	9	0.91304347826087
2	536204	10	0.65384615384615
2	536204	11	0.35294117647059
2	536204	12	1
2	536204	13	0.33333333333333
2	536204	14	0.80952380952381
2	536204	15	0.29411764705882
2	536204	16	0.56
2	536204	17	0.66666666666667
2	536204	18	0
2	536204	19	0.61111111111111
2	536204	20	0.5625
2	536204	21	0.6
2	536204	22	0.42857142857143
2	536204	23	0.23076923076923
2	536204	24	0.65
2	536204	25	0.125
2	536204	26	0.1
2	536204	27	0.57142857142857
2	536204	28	0
2	536204	29	0.6
2	536204	30	0
2	536204	31	0.33333333333333
2	536204	32	0.3
2	536204	33	0
2	536204	34	0
2	536204	35	0.28571428571429
2	536204	36	0.125
2	536204	37	0.5625
2	536204	38	0.61538461538462
2	536204	39	0
2	536204	40	0.33333333333333
2	536204	41	0.33333333333333
2	536204	42	0
2	536204	43	0.14285714285714
2	536204	44	0.1875
2	536204	45	0.42857142857143
2	536204	46	0.55555555555556
2	536204	47	0.77777777777778
2	536204	48	0.33333333333333
2	536204	49	0
2	536204	50	0.2
2	536204	51	0
2	536204	52	0.4
2	536204	53	0.45454545454545
2	536204	54	0
2	536204	55	0.11111111111111
2	536204	56	0.33333333333333
2	536204	57	0.25
2	536204	58	0
2	536204	59	0.25
2	536204	60	0.11111111111111
2	536204	61	0.11111111111111
2	536204	62	0.28571428571429
2	536204	63	0.18181818181818
2	536204	64	0
2	536204	65	0.125
2	536204	66	0
2	536204	67	0.44444444444444
2	536204	68	0.14285714285714
2	536204	69	0
2	536204	70	0
2	536204	71	0
2	536204	72	0.81818181818182
2	536204	73	0
2	536204	74	0.14285714285714
2	536204	75	0
2	536204	76	0.16666666666667
vector 3  abilene_network.node[3].content_store  hit_node[3]  ETV
3	536204	1	1
3	536204	2	1
3	536204	3	0.8
3	536204	4	1
3	536204	5	1
3	536204	6	0.8
3	536204	7	0.94594594594595
3	536204	8	0.68181818181818
3	536204	9	0.39130434782609
3	536204	10	0.65217391304348
3	536204	11	0.85294117647059
3	536204	12	0.1
3	536204	13	0.76666666666667
3	536204	14	0.11111111111111
3	536204	15	0.68421052631579
3	536204	16	0.75
3	536204	17	0.42857142857143
3	536204	18	0.26315789473684
3	536204	19	0.15
3	536204	20	0.52941176470588
3	536204	21	0.625
3	536204	22	0.083333333333333
3	536204	23	0.33333333333333
3	536204	24	0.21428571428571
3	536204	25	0.3
3	536204	26	0.66666666666667
3	536204	27	0
3	536204	28	0.6
3	536204	29	0.27272727272727
3	536204	30	0
3	536204	31	0.13333333333333
3	536204	32	0
3	536204	33	0.2
3	536204	34	0.54545454545455
3	536204	35	0
3	536204	36	0.57142857142857
3	536204	37	0.30769230769231
3	536204	38	0.25
3	536204	39	0.95454545454545
3	536204	40	0
3	536204	41	0
3	536204	42	0.14285714285714
3	536204	43	0.36363636363636
3	536204	44	0.4375
3	536204	45	0.125
3	536204	46	0
3	536204	47	0
3	536204	48	0.66666666666667
3	536204	49	0.1
3	536204	50	0.46153846153846
3	536204	51	0.076923076923077
3	536204	52	0
3	536204	53	0.14285714285714
3	536204	54	0.125
3	536204	55	0.18181818181818
3	536204	56	0.22222222222222
3	536204	57	0.63636363636364
3	536204	58	0.6
3	536204	59	0.33333333333333
3	536204	60	0.3
3	536204	61	0.16666666666667
3	536204	62	0
3	536204	63	0.076923076923077
3	536204	64	0
3	536204	65	0
3	536204	66	0.375
3	536204	67	0
3	536204	68	0.1
3	536204	69	0
3	536204	70	0.11111111111111
3	536204	71	0.6
3	536204	72	0
3	536204	73	0.33333333333333
3	536204	74	0
3	536204	75	0.33333333333333
3	536204	76	0.16666666666667
vector 4  abilene_network.node[4].content_store  hit_node[4]  ETV
4	536204	1	1
4	536204	2	1
4	536204	3	0.98611111111111
4	536204	4	1
4	536204	5	0.74285714285714
4	536204	6	0.61764705882353
4	536204	7	0.6969696969697
4	536204	8	0.88461538461538
4	536204	9	0.82758620689655
4	536204	10	0.79310344827586
4	536204	11	0.26086956521739
4	536204	12	0.52941176470588
4	536204	13	0.36842105263158
4	536204	14	0.90322580645161
4	536204	15	0.36842105263158
4	536204	16	0
4	536204	17	0.75
4	536204	18	0.80769230769231
4	536204	19	0.73333333333333
4	536204	20	0
4	536204	21	0.86363636363636
4	536204	22	0.38461538461538
4	536204	23	0.14285714285714
4	536204	24	0.13333333333333
4	536204	25	0
4	536204	26	0.33333333333333
4	536204	27	0.14285714285714
4	536204	28	0.16666666666667
4	536204	29	0.38461538461538
4	536204	30	0.13333333333333
4	536204	31	0.22222222222222
4	536204	32	0.125
4	536204	33	0.27272727272727
4	536204	34	0
4	536204	35	0.5
4	536204	36	0.14285714285714
4	536204	37	0.64285714285714
4	536204	38	0.2
4	536204	39	0
4	536204	40	0.38461538461538
4	536204	41	0.72222222222222
4	536204	42	0.375
4	536204	43	0.11111111111111
4	536204	44	0.375
4	536204	45	0.9375
4	536204	46	0
4	536204	47	0
4	536204	48	0
4	536204	49	0
4	536204	50	0
4	536204	51	0.76470588235294
4	536204	52	0.11111111111111
4	536204	53	0.11111111111111
4	536204	54	0.3
4	536204	55	0.21428571428571
4	536204	56	0.1
4	536204	57	0.2
4	536204	58	0
4	536204	59	0.25
4	536204	60	0
4	536204	61	0.071428571428571
4	536204	62	0
4	536204	63	0.61538461538462
4	536204	64	0.3
4	536204	65	0.30769230769231
4	536204	66	0.33333333333333
4	536204	67	0
4	536204	68	0.076923076923077
4	536204	69	0
4	536204	70	0.11111111111111
4	536204	71	0
4	536204	72	0
4	536204	73	0
4	536204	74	0
4	536204	75	0.25
4	536204	76	0
vector 5  abilene_network.node[5].content_store  hit_node[5]  ETV
5	536204	1	1
5	536204	2	1
5	536204	3	0.90769230769231
5	536204	4	0.81578947368421
5	536204	5	0.9
5	536204	6	0.96153846153846
5	536204	7	0.52631578947368
5	536204	8	0.1875
5	536204	9	0.67857142857143
5	536204	10	0.35135135135135
5	536204	11	0.27272727272727
5	536204	12	0.56
5	536204	13	0.80555555555556
5	536204	14	0
5	536204	15	0.1875
5	536204	16	0.91428571428571
5	536204	17	0.125
5	536204	18	0
5	536204	19	0
5	536204	20	0.24137931034483
5	536204	21	0.57142857142857
5	536204	22	0.2
5	536204	23	0.13333333333333
5	536204	24	0.57142857142857
5	536204	25	0.72916666666667
5	536204	26	0.41176470588235
5	536204	27	0.77777777777778
5	536204	28	0.47368421052632
5	536204	29	0.66666666666667
5	536204	30	0.62068965517241
5	536204	31	0.61538461538462
5	536204	32	0.18421052631579
5	536204	33	0.52173913043478
5	536204	34	0.32
5	536204	35	0.21052631578947
5	536204	36	0.066666666666667
5	536204	37	0.39130434782609
5	536204	38	0.38235294117647
5	536204	39	0.5
5	536204	40	0.18181818181818
5	536204	41	0
5	536204	42	0.36842105263158
5	536204	43	0.27272727272727
5	536204	44	0.33333333333333
5	536204	45	0
5	536204	46	0
5	536204	47	0.037037037037037
5	536204	48	0
5	536204	49	0.043478260869565
5	536204	50	0.25
5	536204	51	0.31578947368421
5	536204	52	0
5	536204	53	0.5
5	536204	54	0.11764705882353
5	536204	55	0.21739130434783
5	536204	56	0.11764705882353
5	536204	57	0.375
5	536204	58	0.08
5	536204	59	0.23809523809524
5	536204	60	0.27272727272727
5	536204	61	0.14285714285714
5	536204	62	0.18181818181818
5	536204	63	0.41666666666667
5	536204	64	0
5	536204	65	0.125
5	536204	66	0
5	536204	67	0.55
5	536204	68	0.5
5	536204	69	0
5	536204	70	0
5	536204	71	0
5	536204	72	0.38095238095238
5	536204	73	0.35294117647059
5	536204	74	0
5	536204	75	0
5	536204	76	0
vector 6  abilene_network.node[6].content_store  hit_node[6]  ETV
6	536204	1	1
6	536204	2	1
6	536204	3	1
6	536204	4	0.93181818181818
6	536204	5	1
6	536204	6	0.82608695652174
6	536204	7	0.88
6	536204	8	0.375
6	536204	9	0.78947368421053
6	536204	10	0.6
6	536204	11	0.52631578947368
6	536204	12	0.875
6	536204	13	0.72222222222222
6	536204	14	0.8
6	536204	15	0.16666666666667
6	536204	16	0.54545454545455
6	536204	17	0.27777777777778
6	536204	18	0.63636363636364
6	536204	19	0.5
6	536204	20	0.6875
6	536204	21	0.28571428571429
6	536204	22	0.95652173913043
6	536204	23	0.33333333333333
6	536204	24	0.33333333333333
6	536204	25	0
6	536204	26	0
6	536204	27	0.57894736842105
6	536204	28	1
6	536204	29	0.33333333333333
6	536204	30	0
6	536204	31	0
6	536204	32	0.35294117647059
6	536204	33	0.25
6	536204	34	0.18181818181818
6	536204	35	0
6	536204	36	0.33333333333333
6	536204	37	0.15
6	536204	38	0.21052631578947
6	536204	39	0.27272727272727
6	536204	40	0.16666666666667
6	536204	41	0.63636363636364
6	536204	42	0.23076923076923
6	536204	43	0.125
6	536204	44	0.27272727272727
6	536204	45	0
6	536204	46	0.4
6	536204	47	0.0625
6	536204	48	0.5
6	536204	49	0
6	536204	50	0
6	536204	51	0.25
6	536204	52	0.33333333333333
6	536204	53	0.5
6	536204	54	0.1
6	536204	55	0.3
6	536204	56	0.4
6	536204	57	0.5
6	536204	58	0.083333333333333
6	536204	59	0
6	536204	60	0
6	536204	61	0.69230769230769
6	536204	62	0.090909090909091
6	536204	63	0.6
6	536204	64	0.33333333333333
6	536204	65	0.33333333333333
6	536204	66	0
6	536204	67	0.4
6	536204	68	0
6	536204	69	0
6	536204	70	0.55555555555556
6	536204	71	0.11111111111111
6	536204	72	0
6	536204	73	0.3
6	536204	74	0.33333333333333
6	536204	75	0
6	536204	76	0.125
vector 7  abilene_network.node[7].content_store  hit_node[7]  ETV
7	536204	1	1
7	536204	2	1
7	536204	3	1
7	536204	4	1
7	536204	5	1
7	536204	6	1
7	536204	7	1
7	536204	8	1
7	536204	9	1
7	536204	10	1
7	536204	11	0.53333333333333
7	536204	12	0.625
7	536204	13	0.25
7	536204	14	0.92857142857143
7	536204	15	0.8125
7	536204	16	0.92857142857143
7	536204	17	0.1
7	536204	18	0.94117647058824
7	536204	19	0.33333333333333
7	536204	20	0.5
7	536204	21	1
7	536204	22	0.17647058823529
7	536204	23	0.58333333333333
7	536204	24	0.86666666666667
7	536204	25	0
7	536204	26	0.85714285714286
7	536204	27	0
7	536204	28	0.38461538461538
7	536204	29	0.5
7	536204	30	0.69230769230769
7	536204	31	0.33333333333333
7	536204	32	0
7	536204	33	0
7	536204	34	0
7	536204	35	0.6
7	536204	36	0.77777777777778
7	536204	37	0.11111111111111
7	536204	38	0
7	536204	39	0
7	536204	40	0.33333333333333
7	536204	41	0
7	536204	42	0.4
7	536204	43	0
7	536204	44	0
7	536204	45	0.125
7	536204	46	0.44444444444444
7	536204	47	0.14285714285714
7	536204	48	0.54545454545455
7	536204	49	0.22222222222222
7	536204	50	0.8
7	536204	51	0
7	536204	52	0.33333333333333
7	536204	53	0.85714285714286
7	536204	54	0
7	536204	55	0.33333333333333
7	536204	56	0.33333333333333
7	536204	57	0.2
7	536204	58	0.2
7	536204	59	0.25
7	536204	60	0.6
7	536204	61	0
7	536204	62	0
7	536204	63	0.5
7	536204	64	0.6
7	536204	65	0.4
7	536204	66	0
7	536204	67	0.22222222222222
7	536204	68	0
7	536204	69	0
7	536204	70	0.2
7	536204	71	0.2
7	536204	72	0
7	536204	73	0
7	536204	74	0.33333333333333
7	536204	75	0.6
7	536204	76	0
vector 8  abilene_network.node[8].content_store  hit_node[8]  ETV
8	536204	1	1
8	536204	2	1
8	536204	3	1
8	536204	4	1
8	536204	5	1
8	536204	6	1
8	536204	7	1
8	536204	8	1
8	536204	9	1
8	536204	10	0.42857142857143
8	536204	11	1
8	536204	12	1
8	536204	13	1
8	536204	14	0.93333333333333
8	536204	15	0.53846153846154
8	536204	16	1
8	536204	17	0.71428571428571
8	536204	18	0.8
8	536204	19	0
8	536204	20	1
8	536204	21	0
8	536204	22	0.14285714285714
8	536204	23	0
8	536204	24	0.57142857142857
8	536204	25	1
8	536204	26	0.16666666666667
8	536204	27	0.73333333333333
8	536204	28	0
8	536204	29	0.85714285714286
8	536204	30	0.11111111111111
8	536204	31	0.625
8	536204	32	0
8	536204	33	0.875
8	536204	34	0.6
8	536204	35	0.83333333333333
8	536204	36	0.4
8	536204	37	0.375
8	536204	38	0.33333333333333
8	536204	39	0.83333333333333
8	536204	40	0
8	536204	41	0.5
8	536204	42	0.85714285714286
8	536204	43	1
8	536204	44	0.25
8	536204	45	0
8	536204	46	0
8	536204	47	0.125
8	536204	48	0
8	536204	49	0.16666666666667
8	536204	50	0
8	536204	51	0
8	536204	52	0.6
8	536204	53	0
8	536204	54	0.25
8	536204	55	0
8	536204	56	0.6
8	536204	57	0
8	536204	58	0.5
8	536204	59	0
8	536204	60	0.5
8	536204	61	0.16666666666667
8	536204	62	0
8	536204	63	0
8	536204	64	0.88888888888889
8	536204	65	0
8	536204	66	0.33333333333333
8	536204	67	0.44444444444444
8	536204	68	0
8	536204	69	0.6
8	536204	70	0
8	536204	71	0
8	536204	72	0.33333333333333
8	536204	73	0
8	536204	74	1
8	536204	75	0.4
8	536204	76	0
vector 9  abilene_network.node[9].content_store  hit_node[9]  ETV
9	536204	1	1
9	536204	2	1
9	536204	3	1
9	536204	4	1
9	536204	5	1
9	536204	6	1
9	536204	7	1
9	536204	8	1
9	536204	9	1
9	536204	10	1
9	536204	11	1
9	536204	12	1
9	536204	13	0.77777777777778
9	536204	14	1
9	536204	15	1
9	536204	16	0.72727272727273
9	536204	17	1
9	536204	18	0.90909090909091
9	536204	19	1
9	536204	20	1
9	536204	21	0.41666666666667
9	536204	22	1
9	536204	23	1
9	536204	24	1
9	536204	25	0.85714285714286
9	536204	26	0
9	536204	27	0
9	536204	28	1
9	536204	29	0.6
9	536204	30	0
9	536204	31	0.4
9	536204	32	0.75
9	536204	33	1
9	536204	34	1
9	536204	35	1
9	536204	36	1
9	536204	37	1
9	536204	38	0.83333333333333
9	536204	39	1
9	536204	40	0
9	536204	41	0
9	536204	42	1
9	536204	43	0.25
9	536204	44	1
9	536204	45	0
9	536204	46	0
9	536204	47	0.5
9	536204	48	0.28571428571429
9	536204	49	0
9	536204	50	-nan
9	536204	51	0
9	536204	52	-nan
9	536204	53	0
9	536204	54	0
9	536204	55	0
9	536204	56	0.75
9	536204	57	0.6
9	536204	58	0.66666666666667
9	536204	59	0.6
9	536204	60	1
9	536204	61	0
9	536204	62	0
9	536204	63	0
9	536204	64	0
9	536204	65	0
9	536204	66	0
9	536204	67	0.55555555555556
9	536204	68	0
9	536204	69	0.5
9	536204	70	0.5
9	536204	71	0.66666666666667
9	536204	72	0.66666666666667
9	536204	73	0
9	536204	74	0.25
9	536204	75	0
9	536204	76	-nan
vector 10  abilene_network.node[10].content_store  hit_node[10]  ETV
10	536204	1	1
10	536204	2	1
10	536204	3	1
10	536204	4	1
10	536204	5	1
10	536204	6	1
10	536204	7	1
10	536204	8	1
10	536204	9	1
10	536204	10	1
10	536204	11	1
10	536204	12	1
10	536204	13	1
10	536204	14	1
10	536204	15	1
10	536204	16	1
10	536204	17	1
10	536204	18	1
10	536204	19	0.42857142857143
10	536204	20	0.625
10	536204	21	0
10	536204	22	1
10	536204	23	1
10	536204	24	1
10	536204	25	0.4
10	536204	26	0.6
10	536204	27	0
10	536204	28	0.5
10	536204	29	0.2
10	536204	30	0.125
10	536204	31	0.42857142857143
10	536204	32	1
10	536204	33	1
10	536204	34	1
10	536204	35	1
10	536204	36	0.14285714285714
10	536204	37	0.33333333333333
10	536204	38	0.2
10	536204	39	1
10	536204	40	0.2
10	536204	41	0
10	536204	42	0.5
10	536204	43	0.33333333333333
10	536204	44	0
10	536204	45	0.66666666666667
10	536204	46	0.25
10	536204	47	0.6
10	536204	48	0
10	536204	49	0.66666666666667
10	536204	50	1
10	536204	51	0.5
10	536204	52	0
10	536204	53	0
10	536204	54	0.2
10	536204	55	0.75
10	536204	56	0
10	536204	57	0
10	536204	58	0
10	536204	59	0
10	536204	60	0
10	536204	61	0.33333333333333
10	536204	62	0
10	536204	63	0
10	536204	64	0
10	536204	65	0
10	536204	66	0
10	536204	67	0
10	536204	68	0
10	536204	69	0
10	536204	70	0
10	536204	71	0
10	536204	72	0
10	536204	73	0.4
10	536204	74	0.66666666666667
10	536204	75	0.66666666666667
10	536204	76	0
vector 11  abilene_network.client[0]  hdistance[0]  ETV
11	536204	1	0
11	536204	2	0
11	536204	3	0
11	536204	4	0
11	536204	5	0
11	536204	6	0
11	536204	7	0
11	536204	8	0
11	536204	9	0
11	536204	10	0
11	536204	11	0
11	536204	12	0
11	536204	13	0
11	536204	14	0
11	536204	15	0
11	536204	16	0.1
11	536204	17	0.25
11	536204	18	0
11	536204	19	0
11	536204	20	0
11	536204	21	0.85714285714286
11	536204	22	2.75
11	536204	23	0
11	536204	24	0
11	536204	25	1.375
11	536204	26	1.25
11	536204	27	0
11	536204	28	0
11	536204	29	0
11	536204	30	0
11	536204	31	0.2
11	536204	32	0
11	536204	33	0.41666666666667
11	536204	34	0
11	536204	35	1.6666666666667
11	536204	36	3
11	536204	37	2.5
11	536204	38	2.2857142857143
11	536204	39	1
11	536204	40	3
11	536204	41	0
11	536204	42	0.5
11	536204	43	3
11	536204	44	0.75
11	536204	45	2
11	536204	46	0.33333333333333
11	536204	47	3.3333333333333
11	536204	48	1
11	536204	49	2.6666666666667
11	536204	50	4.5
11	536204	51	2
11	536204	52	1
11	536204	53	2.5714285714286
11	536204	54	4
11	536204	55	3
11	536204	56	0
11	536204	57	1.25
11	536204	58	1.1666666666667
11	536204	59	2.6666666666667
11	536204	60	6
11	536204	61	1
11	536204	62	2
11	536204	63	3.1428571428571
11	536204	64	0.5
11	536204	65	0
11	536204	66	0.33333333333333
11	536204	67	5
11	536204	68	6
11	536204	69	3
11	536204	70	1
11	536204	71	1.5
11	536204	72	1.5
11	536204	73	3
11	536204	74	3.5
11	536204	75	3
11	536204	76	2.6666666666667
vector 12  abilene_network.client[1]  hdistance[1]  ETV
12	536204	1	0
12	536204	2	0
12	536204	3	0
12	536204	4	0
12	536204	5	0
12	536204	6	0.15384615384615
12	536204	7	0
12	536204	8	0.083333333333333
12	536204	9	0
12	536204	10	0.47368421052632
12	536204	11	0.61111111111111
12	536204	12	0.0625
12	536204	13	1.2
12	536204	14	0.2
12	536204	15	1.1
12	536204	16	1.2222222222222
12	536204	17	1.0833333333333
12	536204	18	0
12	536204	19	0.76923076923077
12	536204	20	1.4285714285714
12	536204	21	1
12	536204	22	2.1818181818182
12	536204	23	1.5
12	536204	24	0.88888888888889
12	536204	25	3.2
12	536204	26	1.4285714285714
12	536204	27	1.8888888888889
12	536204	28	0.66666666666667
12	536204	29	0.3
12	536204	30	1
12	536204	31	1.125
12	536204	32	3.2
12	536204	33	1
12	536204	34	2
12	536204	35	1.5
12	536204	36	0.33333333333333
12	536204	37	3
12	536204	38	0.5
12	536204	39	2
12	536204	40	4
12	536204	41	2.2222222222222
12	536204	42	0
12	536204	43	2.6666666666667
12	536204	44	1.375
12	536204	45	3.6666666666667
12	536204	46	2.4
12	536204	47	1
12	536204	48	1.6666666666667
12	536204	49	0
12	536204	50	2.5
12	536204	51	1.8
12	536204	52	1.25
12	536204	53	3.3333333333333
12	536204	54	0
12	536204	55	3.5
12	536204	56	1
12	536204	57	0.5
12	536204	58	2.5
12	536204	59	2
12	536204	60	3.25
12	536204	61	4.5
12	536204	62	0
12	536204	63	5
12	536204	64	0
12	536204	65	3.25
12	536204	66	0
12	536204	67	3.25
12	536204	68	0
12	536204	69	0
12	536204	70	2.1428571428571
12	536204	71	3.5
12	536204	72	1.5
12	536204	73	0
12	536204	74	5
12	536204	75	4
12	536204	76	5
vector 13  abilene_network.client[2]  hdistance[2]  ETV
13	536204	1	0
13	536204	2	0
13	536204	3	0
13	536204	4	0
13	536204	5	0.063829787234043
13	536204	6	0.875
13	536204	7	0.37037037037037
13	536204	8	0.27777777777778
13	536204	9	0.17391304347826
13	536204	10	0.36842105263158
13	536204	11	0.7
13	536204	12	0
13	536204	13	0.8
13	536204	14	0.44444444444444
13	536204	15	1
13	536204	16	0.5625
13	536204	17	0.54545454545455
13	536204	18	3
13	536204	19	1.1666666666667
13	536204	20	0.625
13	536204	21	0.66666666666667
13	536204	22	1.0909090909091
13	536204	23	2.2
13	536204	24	1.0714285714286
13	536204	25	2.2
13	536204	26	0.83333333333333
13	536204	27	1.25
13	536204	28	2
13	536204	29	1
13	536204	30	3
13	536204	31	1.5
13	536204	32	2.6666666666667
13	536204	33	2.75
13	536204	34	2.6
13	536204	35	2.7142857142857
13	536204	36	2.2
13	536204	37	0.83333333333333
13	536204	38	3
13	536204	39	1
13	536204	40	2.4
13	536204	41	2
13	536204	42	3
13	536204	43	0
13	536204	44	1.5
13	536204	45	0.66666666666667
13	536204	46	2
13	536204	47	4
13	536204	48	0.5
13	536204	49	3.5
13	536204	50	0
13	536204	51	1.75
13	536204	52	2
13	536204	53	1.6666666666667
13	536204	54	4
13	536204	55	2.5
13	536204	56	2.4
13	536204	57	1.25
13	536204	58	4
13	536204	59	2.5
13	536204	60	1
13	536204	61	3
13	536204	62	3
13	536204	63	1.2
13	536204	64	3
13	536204	65	2.75
13	536204	66	1.6666666666667
13	536204	67	1.3333333333333
13	536204	68	2.3333333333333
13	536204	69	4
13	536204	70	2
13	536204	71	2.5
13	536204	72	0.75
13	536204	73	2.6666666666667
13	536204	74	4
13	536204	75	0
13	536204	76	1
vector 14  abilene_network.client[3]  hdistance[3]  ETV
14	536204	1	0
14	536204	2	0
14	536204	3	0.2
14	536204	4	0
14	536204	5	0
14	536204	6	0.25
14	536204	7	0.14814814814815
14	536204	8	0.33333333333333
14	536204	9	0.57142857142857
14	536204	10	0.64285714285714
14	536204	11	0.39130434782609
14	536204	12	1.8
14	536204	13	0.5
14	536204	14	1.1428571428571
14	536204	15	0.57142857142857
14	536204	16	0.92307692307692
14	536204	17	1.4285714285714
14	536204	18	0.85714285714286
14	536204	19	1.4615384615385
14	536204	20	1.1
14	536204	21	0.42857142857143
14	536204	22	1.6666666666667
14	536204	23	1.6
14	536204	24	1.8571428571429
14	536204	25	1.6666666666667
14	536204	26	0.88888888888889
14	536204	27	1.75
14	536204	28	1
14	536204	29	2.1428571428571
14	536204	30	2
14	536204	31	2
14	536204	32	2.3333333333333
14	536204	33	2
14	536204	34	1.2
14	536204	35	1
14	536204	36	0.85714285714286
14	536204	37	1.3333333333333
14	536204	38	1
14	536204	39	0.16666666666667
14	536204	40	2
14	536204	41	1
14	536204	42	1.8
14	536204	43	1
14	536204	44	2
14	536204	45	0.75
14	536204	46	3
14	536204	47	3
14	536204	48	1.5
14	536204	49	3
14	536204	50	1.2
14	536204	51	1.5
14	536204	52	0
14	536204	53	1
14	536204	54	2
14	536204	55	3
14	536204	56	2
14	536204	57	0.2
14	536204	58	0.6
14	536204	59	1.5
14	536204	60	2.5
14	536204	61	2.5
14	536204	62	3
14	536204	63	2.25
14	536204	64	2.3333333333333
14	536204	65	1.6666666666667
14	536204	66	3
14	536204	67	2.8333333333333
14	536204	68	1.75
14	536204	69	3
14	536204	70	3
14	536204	71	1
14	536204	72	2.6666666666667
14	536204	73	0
14	536204	74	0
14	536204	75	1.8333333333333
14	536204	76	3
vector 15  abilene_network.client[4]  hdistance[4]  ETV
15	536204	1	0
15	536204	2	0
15	536204	3	0.015625
15	536204	4	0
15	536204	5	0.28571428571429
15	536204	6	0.36
15	536204	7	0.41935483870968
15	536204	8	0.31578947368421
15	536204	9	0.33333333333333
15	536204	10	0.23809523809524
15	536204	11	1.3888888888889
15	536204	12	0.5
15	536204	13	0.75
15	536204	14	0.13333333333333
15	536204	15	1.6153846153846
15	536204	16	1.25
15	536204	17	0.33333333333333
15	536204	18	0.16666666666667
15	536204	19	0.15384615384615
15	536204	20	1.75
15	536204	21	0.38461538461538
15	536204	22	1.75
15	536204	23	2
15	536204	24	1.25
15	536204	25	1.3
15	536204	26	0
15	536204	27	1.25
15	536204	28	1.125
15	536204	29	0.2
15	536204	30	1.75
15	536204	31	1.2
15	536204	32	1.3333333333333
15	536204	33	1.3333333333333
15	536204	34	1.6666666666667
15	536204	35	1.3333333333333
15	536204	36	0
15	536204	37	0.2
15	536204	38	1.3333333333333
15	536204	39	1.3333333333333
15	536204	40	2
15	536204	41	0.8
15	536204	42	1
15	536204	43	1.5
15	536204	44	0.57142857142857
15	536204	45	0
15	536204	46	2
15	536204	47	2
15	536204	48	2
15	536204	49	2
15	536204	50	2
15	536204	51	0.8
15	536204	52	1.6666666666667
15	536204	53	1.3333333333333
15	536204	54	0.66666666666667
15	536204	55	0.8
15	536204	56	2
15	536204	57	1.5
15	536204	58	2
15	536204	59	2
15	536204	60	2
15	536204	61	1.75
15	536204	62	1.5
15	536204	63	0
15	536204	64	0
15	536204	65	1.3333333333333
15	536204	66	1.5
15	536204	67	2
15	536204	68	1.5
15	536204	69	2
15	536204	70	2
15	536204	71	2
15	536204	72	1.3333333333333
15	536204	73	2
15	536204	74	2
15	536204	75	1.5
15	536204	76	2
vector 16  abilene_network.client[5]  hdistance[5]  ETV
16	536204	1	0
16	536204	2	0
16	536204	3	0.09375
16	536204	4	0.2
16	536204	5	0.097560975609756
16	536204	6	0.057142857142857
16	536204	7	0.4
16	536204	8	0.78947368421053
16	536204	9	0.36842105263158
16	536204	10	0.66666666666667
16	536204	11	0.77777777777778
16	536204	12	0.33333333333333
16	536204	13	0.15789473684211
16	536204	14	1
16	536204	15	0.7
16	536204	16	0
16	536204	17	0.92857142857143
16	536204	18	1
16	536204	19	1
16	536204	20	0.875
16	536204	21	0.53333333333333
16	536204	22	0.875
16	536204	23	0.83333333333333
16	536204	24	0.5
16	536204	25	0.33333333333333
16	536204	26	0.66666666666667
16	536204	27	0.42857142857143
16	536204	28	0.44444444444444
16	536204	29	0.3
16	536204	30	0.3
16	536204	31	0.33333333333333
16	536204	32	0.69230769230769
16	536204	33	0.83333333333333
16	536204	34	1
16	536204	35	0.83333333333333
16	536204	36	0.8
16	536204	37	0
16	536204	38	0.71428571428571
16	536204	39	0.6
16	536204	40	0.75
16	536204	41	1
16	536204	42	0.75
16	536204	43	0.71428571428571
16	536204	44	0.44444444444444
16	536204	45	1
16	536204	46	1
16	536204	47	0.66666666666667
16	536204	48	1
16	536204	49	1
16	536204	50	0.5
16	536204	51	0.66666666666667
16	536204	52	1
16	536204	53	0.33333333333333
16	536204	54	1
16	536204	55	0.8
16	536204	56	0.8
16	536204	57	0
16	536204	58	1
16	536204	59	0.75
16	536204	60	0.85714285714286
16	536204	61	1
16	536204	62	1
16	536204	63	0.66666666666667
16	536204	64	1
16	536204	65	1
16	536204	66	1
16	536204	67	0
16	536204	68	0.4
16	536204	69	0
16	536204	70	1
16	536204	71	1
16	536204	72	0
16	536204	73	0.4
16	536204	74	1
16	536204	75	1
16	536204	76	1
vector 17  abilene_network.client[6]  hdistance[6]  ETV
17	536204	1	0
17	536204	2	0
17	536204	3	0
17	536204	4	0.068181818181818
17	536204	5	0
17	536204	6	0.17391304347826
17	536204	7	0.24
17	536204	8	1.125
17	536204	9	0.31578947368421
17	536204	10	0.8
17	536204	11	0.5
17	536204	12	0.2
17	536204	13	0.26666666666667
17	536204	14	0.44444444444444
17	536204	15	1.5555555555556
17	536204	16	0.4
17	536204	17	1.3333333333333
17	536204	18	0.8
17	536204	19	0.8
17	536204	20	0.57142857142857
17	536204	21	0.85714285714286
17	536204	22	0.22222222222222
17	536204	23	1.3076923076923
17	536204	24	1.5
17	536204	25	1.2
17	536204	26	1.6666666666667
17	536204	27	0.33333333333333
17	536204	28	0
17	536204	29	0.66666666666667
17	536204	30	2
17	536204	31	1.4
17	536204	32	1.6666666666667
17	536204	33	0.83333333333333
17	536204	34	0.83333333333333
17	536204	35	1.5
17	536204	36	1.5
17	536204	37	1.25
17	536204	38	1.4
17	536204	39	1.5
17	536204	40	1
17	536204	41	1
17	536204	42	1.1
17	536204	43	1
17	536204	44	1.3333333333333
17	536204	45	2
17	536204	46	1.6
17	536204	47	2
17	536204	48	1.6
17	536204	49	1
17	536204	50	1.6666666666667
17	536204	51	0
17	536204	52	1
17	536204	53	1
17	536204	54	1.8
17	536204	55	1.75
17	536204	56	1.3333333333333
17	536204	57	0.25
17	536204	58	1.75
17	536204	59	1.5
17	536204	60	1.25
17	536204	61	1.1428571428571
17	536204	62	1
17	536204	63	0.75
17	536204	64	2
17	536204	65	0.66666666666667
17	536204	66	2
17	536204	67	0.66666666666667
17	536204	68	1
17	536204	69	2
17	536204	70	0.8
17	536204	71	1.6
17	536204	72	1.8333333333333
17	536204	73	1
17	536204	74	1.5
17	536204	75	2
17	536204	76	2
vector 18  abilene_network.client[7]  hdistance[7]  ETV
18	536204	1	0
18	536204	2	0
18	536204	3	0
18	536204	4	0
18	536204	5	0
18	536204	6	0
18	536204	7	0
18	536204	8	0
18	536204	9	0
18	536204	10	0
18	536204	11	1.0666666666667
18	536204	12	0.4375
18	536204	13	1.5
18	536204	14	0.076923076923077
18	536204	15	0.2
18	536204	16	0.14285714285714
18	536204	17	1.875
18	536204	18	0.066666666666667
18	536204	19	1.7
18	536204	20	0.5
18	536204	21	0
18	536204	22	0.72727272727273
18	536204	23	0.625
18	536204	24	0.25
18	536204	25	2.2857142857143
18	536204	26	0.5
18	536204	27	1.6666666666667
18	536204	28	0.57142857142857
18	536204	29	1.4
18	536204	30	0.8
18	536204	31	2.6666666666667
18	536204	32	1.75
18	536204	33	2.2
18	536204	34	2.3333333333333
18	536204	35	0.75
18	536204	36	0.66666666666667
18	536204	37	2
18	536204	38	2.2
18	536204	39	2.1666666666667
18	536204	40	1.6666666666667
18	536204	41	3
18	536204	42	1.75
18	536204	43	2.5714285714286
18	536204	44	2.5
18	536204	45	3