version 2
run General-2-20150612-19:13:56-490
attr D lce
attr F spr
attr R fifo
attr a 1
attr configname General
attr datetime 20150612-19:13:56
attr experiment General
attr inifile omnetpp.ini
attr iterationvars "$net=abilene, $rep=0, $a=1, $F=spr, $ttl=1000, $D=lce, $R=fifo, $window=60, $variance=0.05, $mytime=1800"
attr iterationvars2 "$net=abilene, $rep=0, $a=1, $F=spr, $ttl=1000, $D=lce, $R=fifo, $window=60, $variance=0.05, $mytime=1800, $repetition=0"
attr measurement "$net=abilene, $rep=0, $a=1, $F=spr, $ttl=1000, $D=lce, $R=fifo, $window=60, $variance=0.05, $mytime=1800"
attr mytime 1800
attr net abilene
attr network networks.${net=abilene}_network
attr processid 490
attr rep 0
attr repetition 0
attr replication #0
attr resultdir results
attr runnumber 2
attr seedset 0
attr ttl 1000
attr variance 0.05
attr window 60

vector 0  abilene_network.node[0].content_store  hit_node[0]  ETV
0	14659750	1	0.58792452830189
0	14659750	2	0.43269150620989
0	14659750	3	0.34003265921367
0	14659750	4	0.28227642276423
0	14659750	5	0.2414569265398
0	14659750	6	0.20877495686468
0	14659750	7	0.19376456876457
0	14659750	8	0.16928738708598
0	14659750	9	0.15396283655669
0	14659750	10	0.14285714285714
0	14659750	11	0.12085415720127
0	14659750	12	0.12631578947368
0	14659750	13	0.1207729468599
0	14659750	14	0.11488095238095
0	14659750	15	0.09563658099223
0	14659750	16	0.092178770949721
0	14659750	17	0.093286219081272
0	14659750	18	0.087472201630838
0	14659750	19	0.085463258785942
0	14659750	20	0.062602965403624
0	14659750	21	0.073345259391771
0	14659750	22	0.073170731707317
0	14659750	23	0.065827686350436
0	14659750	24	0.063054187192118
0	14659750	25	0.057286432160804
vector 1  abilene_network.node[1].content_store  hit_node[1]  ETV
1	14659750	1	0.43543334493561
1	14659750	2	0.32334728033473
1	14659750	3	0.25468186243629
1	14659750	4	0.21841435839457
1	14659750	5	0.18635350591462
1	14659750	6	0.16506506506507
1	14659750	7	0.14937948309234
1	14659750	8	0.12880743417656
1	14659750	9	0.12679907887162
1	14659750	10	0.11301103684129
1	14659750	11	0.1007243877199
1	14659750	12	0.096644049147258
1	14659750	13	0.09369405211856
1	14659750	14	0.080506655216831
1	14659750	15	0.073231185218567
1	14659750	16	0.072860635696822
1	14659750	17	0.068569971960235
1	14659750	18	0.064385775862069
1	14659750	19	0.066113337149399
1	14659750	20	0.055636896046852
1	14659750	21	0.05522804840211
1	14659750	22	0.054665409990575
1	14659750	23	0.057561307901907
1	14659750	24	0.053214285714286
1	14659750	25	0.050610193826274
vector 2  abilene_network.node[2].content_store  hit_node[2]  ETV
2	14659750	1	0.35856478150333
2	14659750	2	0.23852346357746
2	14659750	3	0.18051813471503
2	14659750	4	0.14798632218845
2	14659750	5	0.12530585007785
2	14659750	6	0.10972589872769
2	14659750	7	0.093446251563853
2	14659750	8	0.085956806704631
2	14659750	9	0.079353765740081
2	14659750	10	0.067702980472765
2	14659750	11	0.069586914333241
2	14659750	12	0.061520083619531
2	14659750	13	0.059307010475423
2	14659750	14	0.050247820885319
2	14659750	15	0.055565418072075
2	14659750	16	0.050749711649366
2	14659750	17	0.041540633192176
2	14659750	18	0.041290322580645
2	14659750	19	0.0440489432703
2	14659750	20	0.034835113794705
2	14659750	21	0.03554040895813
2	14659750	22	0.038345864661654
2	14659750	23	0.031283422459893
2	14659750	24	0.034511319712866
2	14659750	25	0.031746031746032
vector 3  abilene_network.node[3].content_store  hit_node[3]  ETV
3	14659750	1	0.32610673135233
3	14659750	2	0.21463080349495
3	14659750	3	0.16024268379729
3	14659750	4	0.13253724920661
3	14659750	5	0.10760410760411
3	14659750	6	0.093024916113372
3	14659750	7	0.080916519788495
3	14659750	8	0.071160379045235
3	14659750	9	0.064742589703588
3	14659750	10	0.059643196453077
3	14659750	11	0.056521238632439
3	14659750	12	0.052210318926241
3	14659750	13	0.048036093418259
3	14659750	14	0.03881569627426
3	14659750	15	0.04121601870798
3	14659750	16	0.034229046705054
3	14659750	17	0.034556524600954
3	14659750	18	0.036528091842059
3	14659750	19	0.030353200883002
3	14659750	20	0.029026750142288
3	14659750	21	0.028487229862475
3	14659750	22	0.029344905972308
3	14659750	23	0.024062432256666
3	14659750	24	0.026600541027953
3	14659750	25	0.02464302164901
vector 4  abilene_network.node[4].content_store  hit_node[4]  ETV
4	14659750	1	0.29072355849733
4	14659750	2	0.19063646562964
4	14659750	3	0.1428626797411
4	14659750	4	0.11256825500537
4	14659750	5	0.096206257494822
4	14659750	6	0.08130181148296
4	14659750	7	0.068577698532437
4	14659750	8	0.064388762338648
4	14659750	9	0.053957134517555
4	14659750	10	0.048073460568959
4	14659750	11	0.048961279625475
4	14659750	12	0.041480403368334
4	14659750	13	0.03964265773311
4	14659750	14	0.039208675962341
4	14659750	15	0.034966756956415
4	14659750	16	0.035385231673121
4	14659750	17	0.03206106870229
4	14659750	18	0.028525216879871
4	14659750	19	0.025900383141762
4	14659750	20	0.024792066538708
4	14659750	21	0.027791563275434
4	14659750	22	0.026682733689103
4	14659750	23	0.025594481757125
4	14659750	24	0.022365428354814
4	14659750	25	0.017787333854574
vector 5  abilene_network.node[5].content_store  hit_node[5]  ETV
5	14659750	1	0.32408614551472
5	14659750	2	0.23231381548281
5	14659750	3	0.18570216187243
5	14659750	4	0.15560489519731
5	14659750	5	0.13625252093137
5	14659750	6	0.12122458774727
5	14659750	7	0.10701261206504
5	14659750	8	0.097061293031066
5	14659750	9	0.090502535730751
5	14659750	10	0.082910826125857
5	14659750	11	0.076807390697175
5	14659750	12	0.072808320950966
5	14659750	13	0.070145423438837
5	14659750	14	0.06098836449209
5	14659750	15	0.061306056089961
5	14659750	16	0.053801851716848
5	14659750	17	0.053621753370401
5	14659750	18	0.051364884509772
5	14659750	19	0.045600405336936
5	14659750	20	0.049231570721542
5	14659750	21	0.043871675349602
5	14659750	22	0.042877560743211
5	14659750	23	0.042029272151899
5	14659750	24	0.039491507762843
5	14659750	25	0.038720718793454
vector 6  abilene_network.node[6].content_store  hit_node[6]  ETV
6	14659750	1	0.39694353709753
6	14659750	2	0.26061062947606
6	14659750	3	0.19757245479316
6	14659750	4	0.1539400598181
6	14659750	5	0.12947618704518
6	14659750	6	0.10882718607542
6	14659750	7	0.093930905695612
6	14659750	8	0.082448469706433
6	14659750	9	0.076896271343942
6	14659750	10	0.067497796247324
6	14659750	11	0.064263534494397
6	14659750	12	0.056515373352855
6	14659750	13	0.056942277691108
6	14659750	14	0.046585940127817
6	14659750	15	0.050261780104712
6	14659750	16	0.044973544973545
6	14659750	17	0.042287075640262
6	14659750	18	0.045512277730737
6	14659750	19	0.039991113085981
6	14659750	20	0.030772790374826
6	14659750	21	0.037244401168452
6	14659750	22	0.024678663239075
6	14659750	23	0.031129405711346
6	14659750	24	0.033379310344828
6	14659750	25	0.030087993187624
vector 7  abilene_network.node[7].content_store  hit_node[7]  ETV
7	14659750	1	0.42957877650941
7	14659750	2	0.29724277067922
7	14659750	3	0.22481138963251
7	14659750	4	0.18044599514563
7	14659750	5	0.15367945823928
7	14659750	6	0.13594784985806
7	14659750	7	0.11336757854498
7	14659750	8	0.10627062706271
7	14659750	9	0.090180057497352
7	14659750	10	0.088423409018228
7	14659750	11	0.084502164502165
7	14659750	12	0.075749115950121
7	14659750	13	0.067848410757946
7	14659750	14	0.066361056537874
7	14659750	15	0.056274109371455
7	14659750	16	0.056770705333006
7	14659750	17	0.053199691595991
7	14659750	18	0.055540127742294
7	14659750	19	0.047494172494172
7	14659750	20	0.0453181272509
7	14659750	21	0.047906091370558
7	14659750	22	0.04404996712689
7	14659750	23	0.039482641252553
7	14659750	24	0.038643820634342
7	14659750	25	0.037091988130564
vector 8  abilene_network.node[8].content_store  hit_node[8]  ETV
8	14659750	1	0.49037199124726
8	14659750	2	0.3552881925014
8	14659750	3	0.27763013912772
8	14659750	4	0.22553532119272
8	14659750	5	0.18941233608548
8	14659750	6	0.17082917082917
8	14659750	7	0.14571948998179
8	14659750	8	0.13702409416958
8	14659750	9	0.12168421052632
8	14659750	10	0.10539325842697
8	14659750	11	0.093205354887598
8	14659750	12	0.093676200472317
8	14659750	13	0.087928032501451
8	14659750	14	0.083645443196005
8	14659750	15	0.07504873294347
8	14659750	16	0.077002406325198
8	14659750	17	0.078251285819251
8	14659750	18	0.057877813504823
8	14659750	19	0.064738886491152
8	14659750	20	0.067532467532468
8	14659750	21	0.070944419340262
8	14659750	22	0.059349976448422
8	14659750	23	0.063328424153166
8	14659750	24	0.055613305613306
8	14659750	25	0.04851157662624
vector 9  abilene_network.node[9].content_store  hit_node[9]  ETV
9	14659750	1	0.57988386561593
9	14659750	2	0.4221430347228
9	14659750	3	0.34094596281043
9	14659750	4	0.28464481783397
9	14659750	5	0.23465703971119
9	14659750	6	0.20944249121045
9	14659750	7	0.18698710433763
9	14659750	8	0.16365397030342
9	14659750	9	0.15822092599344
9	14659750	10	0.14249471458774
9	14659750	11	0.12701334560515
9	14659750	12	0.11381322957198
9	14659750	13	0.10282365476825
9	14659750	14	0.11017425519955
9	14659750	15	0.095036319612591
9	14659750	16	0.10293159609121
9	14659750	17	0.085651537335286
9	14659750	18	0.072252113758647
9	14659750	19	0.068796068796069
9	14659750	20	0.06175972927242
9	14659750	21	0.066248880931065
9	14659750	22	0.073972602739726
9	14659750	23	0.061183550651956
9	14659750	24	0.068452380952381
9	14659750	25	0.05668449197861
vector 10  abilene_network.node[10].content_store  hit_node[10]  ETV
10	14659750	1	0.58554387721054
10	14659750	2	0.43137091394263
10	14659750	3	0.338933804952
10	14659750	4	0.28469809760132
10	14659750	5	0.23843268028345
10	14659750	6	0.21388413590809
10	14659750	7	0.18871825162434
10	14659750	8	0.17210386151798
10	14659750	9	0.149609375
10	14659750	10	0.14480198019802
10	14659750	11	0.13832720588235
10	14659750	12	0.10968733982573
10	14659750	13	0.10438972162741
10	14659750	14	0.11336717428088
10	14659750	15	0.10529595015576
10	14659750	16	0.098013245033113
10	14659750	17	0.089012517385257
10	14659750	18	0.080336648814078
10	14659750	19	0.071547420965058
10	14659750	20	0.064409578860446
10	14659750	21	0.072256913470116
10	14659750	22	0.066901408450704
10	14659750	23	0.066541705716963
10	14659750	24	0.065671641791045
10	14659750	25	0.050537634408602
vector 11  abilene_network.client[0]  hdistance[0]  ETV
11	14659750	1	1.0700181983621
11	14659750	2	1.9679878048781
11	14659750	3	2.6357200106866
11	14659750	4	3.13192885512
11	14659750	5	3.3938740293356
11	14659750	6	3.7012586694066
11	14659750	7	3.9356495468278
11	14659750	8	4.1401318071453
11	14659750	9	4.260172143975
11	14659750	10	4.4299956653663
11	14659750	11	4.6115276476101
11	14659750	12	4.6369230769231
11	14659750	13	4.7016967706623
11	14659750	14	4.7376146788991
11	14659750	15	4.8766114180479
11	14659750	16	4.9465431218817
11	14659750	17	4.8852578068264
11	14659750	18	5.0422004521477
11	14659750	19	5.0932684509327
11	14659750	20	5.1553316540722
11	14659750	21	5.1527272727273
11	14659750	22	5.1697247706422
11	14659750	23	5.2218934911243
11	14659750	24	5.2124248496994
11	14659750	25	5.3343558282209
vector 12  abilene_network.client[1]  hdistance[1]  ETV
12	14659750	1	1.6197493148839
12	14659750	2	2.3491555555555
12	14659750	3	2.8457685209597
12	14659750	4	3.0989538672612
12	14659750	5	3.4152816749406
12	14659750	6	3.5391534391534
12	14659750	7	3.7041507212246
12	14659750	8	3.877253814147
12	14659750	9	3.8785117691724
12	14659750	10	4.0156378600823
12	14659750	11	4.0757722007722
12	14659750	12	4.1306930693069
12	14659750	13	4.1228169014085
12	14659750	14	4.271567436209
12	14659750	15	4.28110896196
12	14659750	16	4.2684745762712
12	14659750	17	4.3106444605358
12	14659750	18	4.350531107739
12	14659750	19	4.3721115537849
12	14659750	20	4.4317406143345
12	14659750	21	4.458440445587
12	14659750	22	4.4919642857143
12	14659750	23	4.4760479041916
12	14659750	24	4.4746494066882
12	14659750	25	4.5335365853658
vector 13  abilene_network.client[2]  hdistance[2]  ETV
13	14659750	1	1.5654522725243
13	14659750	2	2.1650863978733
13	14659750	3	2.4761101012724
13	14659750	4	2.639709694142
13	14659750	5	2.8662716885315
13	14659750	6	2.949733434882
13	14659750	7	3.0784255696952
13	14659750	8	3.1226158038147
13	14659750	9	3.2513227513227
13	14659750	10	3.2891156462585
13	14659750	11	3.2420439264904
13	14659750	12	3.3201219512195
13	14659750	13	3.3675496688742
13	14659750	14	3.4779326364692
13	14659750	15	3.4105960264901
13	14659750	16	3.4727153188692
13	14659750	17	3.5395580898076
13	14659750	18	3.5501945525292
13	14659750	19	3.5423728813559
13	14659750	20	3.6056218057922
13	14659750	21	3.5907504363002
13	14659750	22	3.554399243141
13	14659750	23	3.65953307393
13	14659750	24	3.6337611056269
13	14659750	25	3.5871172122492
vector 14  abilene_network.client[3]  hdistance[3]  ETV
14	14659750	1	1.3742992291521
14	14659750	2	1.7455519087925
14	14659750	3	1.9410624272974
14	14659750	4	2.0606828938472
14	14659750	5	2.1935623244761
14	14659750	6	2.2954995054402
14	14659750	7	2.3422287390029
14	14659750	8	2.3870532703978
14	14659750	9	2.4555596876162
14	14659750	10	2.5006160164271
14	14659750	11	2.525092936803
14	14659750	12	2.5294710327456
14	14659750	13	2.5834242093784
14	14659750	14	2.637877853177
14	14659750	15	2.6267912772586
14	14659750	16	2.6926934097421
14	14659750	17	2.69
14	14659750	18	2.6841715976331
14	14659750	19	2.7215397215397
14	14659750	20	2.7216054654142
14	14659750	21	2.7544303797468
14	14659750	22	2.7391304347826
14	14659750	23	2.7530981887512
14	14659750	24	2.75
14	14659750	25	2.7759336099585
vector 15  abilene_network.client[4]  hdistance[4]  ETV
15	14659750	1	0.98283393028741
15	14659750	2	1.1973244147157
15	14659750	3	1.3338813709371
15	14659750	4	1.4307432432432
15	14659750	5	1.4595517609392
15	14659750	6	1.5356689515105
15	14659750	7	1.588166028849
15	14659750	8	1.6285714285714
15	14659750	9	1.6454368932039
15	14659750	10	1.6810673443456
15	14659750	11	1.6874715261959
15	14659750	12	1.7174447174447
15	14659750	13	1.7368700265252
15	14659750	14	1.7271648873072
15	14659750	15	1.7503037667072
15	14659750	16	1.7476882430647
15	14659750	17	1.7917555081734
15	14659750	18	1.7959028831563
15	14659750	19	1.8247501921599
15	14659750	20	1.8121783876501
15	14659750	21	1.8066202090592
15	14659750	22	1.821645021645
15	14659750	23	1.8193116634799
15	14659750	24	1.8626262626263
15	14659750	25	1.8548034934498
vector 16  abilene_network.client[5]  hdistance[5]  ETV
16	14659750	1	0.60749327261436
16	14659750	2	0.69476647896655
16	14659750	3	0.73591549295775
16	14659750	4	0.77849891828923
16	14659750	5	0.79987360438171
16	14659750	6	0.81030150753769
16	14659750	7	0.83909038572251
16	14659750	8	0.85818422796554
16	14659750	9	0.85619223659889
16	14659750	10	0.87167581257915
16	14659750	11	0.88099717779868
16	14659750	12	0.872
16	14659750	13	0.88870967741935
16	14659750	14	0.90029673590504
16	14659750	15	0.89644416718653
16	14659750	16	0.91628515369523
16	14659750	17	0.91408450704225
16	14659750	18	0.91220238095238
16	14659750	19	0.92035398230088
16	14659750	20	0.91377983063895
16	14659750	21	0.93390557939914
16	14659750	22	0.91568449682684
16	14659750	23	0.93429951690821
16	14659750	24	0.93476044852192
16	14659750	25	0.93099787685775
vector 17  abilene_network.client[6]  hdistance[6]  ETV
17	14659750	1	0.86613310867734
17	14659750	2	1.1224953695908
17	14659750	3	1.2699082113619
17	14659750	4	1.3652884294765
17	14659750	5	1.4357262103506
17	14659750	6	1.512928891099
17	14659750	7	1.560820572089
17	14659750	8	1.6099050203528
17	14659750	9	1.6263411024787
17	14659750	10	1.6574113626655
17	14659750	11	1.6776971894832
17	14659750	12	1.7017634854772
17	14659750	13	1.7166313559322
17	14659750	14	1.7353453279164
17	14659750	15	1.7156983930779
17	14659750	16	1.7550066755674
17	14659750	17	1.7653429602888
17	14659750	18	1.7719821162444
17	14659750	19	1.7803514376997
17	14659750	20	1.8224299065421
17	14659750	21	1.7978910369069
17	14659750	22	1.8430983118173
17	14659750	23	1.8156934306569
17	14659750	24	1.8227091633466
17	14659750	25	1.8171247357294
vector 18  abilene_network.client[7]  hdistance[7]  ETV
18	14659750	1	1.1055743977737
18	14659750	2	1.5143742468583
18	14659750	3	1.7941517454592
18	14659750	4	2.0134996582365
18	14659750	5	2.1126579567359
18	14659750	6	2.1710892089967
18	14659750	7	2.3016248153619
18	14659750	8	2.3343303423064
18	14659750	9	2.4111198120595
18	14659750	10	2.4190836485918
18	14659750	11	2.4724061810155
18	14659750	12	2.4954954954955
18	14659750	13	2.5247797356828
18	14659750	14	2.5919811320755
18	14659750	15	2.6075
18	14659750	16	2.6118143459916
18	14659750	17	2.6404494382022
18	14659750	18	2.6129529683886
18	14659750	19	2.6906419180201
18	14659750	20	2.6995850622407
18	14659750	21	2.6824264049955
18	14659750	22	2.7184557438795
18	14659750	23	2.7105769230769
18	14659750	24	2.7165605095541
18	14659750	25	2.7237237237237
vector 19  abilene_network.client[8]  hdistance[8]  ETV
19	14659750	1	1.1154426782701
19	14659750	2	1.7637628820576
19	14659750	3	2.1616789739603
19	14659750	4	2.434372858122
19	14659750	5	2.6493780307822
19	14659750	6	2.7951592356688
19	14659750	7	2.9438066465257
19	14659750	8	2.9866025420818
19	14659750	9	3.0848339335734
19	14659750	10	3.2127659574468
19	14659750	11	3.2563366810139
19	14659750	12	3.3029850746269
19	14659750	13	3.2935267857143
19	14659750	14	3.3583638583639
19	14659750	15	3.4046278924328
19	14659750	16	3.4506769825919
19	14659750	17	3.4240591397849
19	14659750	18	3.4941905499613
19	14659750	19	3.4777497900924
19	14659750	20	3.4941956882255
19	14659750	21	3.4573119188504
19	14659750	22	3.5382538253825
19	14659750	23	3.5495004541326
19	14659750	24	3.5388496468214
19	14659750	25	3.6299465240642
vector 20  abilene_network.client[9]  hdistance[9]  ETV
20	14659750	1	0.87166361974406
20	14659750	2	1.668085106383
20	14659750	3	2.2021675140487
20	14659750	4	2.6097345132743
20	14659750	5	2.9562092971031
20	14659750	6	3.1674993426242
20	14659750	7	3.3810103469264
20	14659750	8	3.5405495978552
20	14659750	9	3.6340909090909
20	14659750	10	3.7530487804878
20	14659750	11	3.8610846812559
20	14659750	12	3.9391824526421
20	14659750	13	4.0536692223439
20	14659750	14	4.0149425287356
20	14659750	15	4.162962962963
20	14659750	16	4.0691949434464
20	14659750	17	4.2117117117117
20	14659750	18	4.327329678935
20	14659750	19	4.3466666666667
20	14659750	20	4.3748925193465
20	14659750	21	4.3394327538884
20	14659750	22	4.3271889400922
20	14659750	23	4.3908629441624
20	14659750	24	4.4032096288867
20	14659750	25	4.4755700325733
vector 21  abilene_network.client[10]  hdistance[10]  ETV
21	14659750	1	1.0785824345146
21	14659750	2	1.9823324707772
21	14659750	3	2.6796864441141
21	14659750	4	3.1195518991773
21	14659750	5	3.4915625684856
21	14659750	6	3.7603663190028
21	14659750	7	3.9411944869832
21	14659750	8	4.131479574322
21	14659750	9	4.285367825384
21	14659750	10	4.3826791808874
21	14659750	11	4.4671705243269
21	14659750	12	4.6982713462546
21	14659750	13	4.7146783947224
21	14659750	14	4.7838616714698
21	14659750	15	4.875238701464
21	14659750	16	4.9438430311231
21	14659750	17	5.0675195451315
21	14659750	18	5.0483619344774
21	14659750	19	5.0496632996633
21	14659750	20	5.2849915682968
21	14659750	21	5.1746606334842
21	14659750	22	5.1934046345811
21	14659750	23	5.2098765432099
21	14659750	24	5.2386248736097
21	14659750	25	5.3478735005453
