file 19160 1434129343                                           
version 2
run General-2-20150612-19:13:56-490
attr D lce
attr F spr
attr R fifo
attr a 1
attr configname General
attr datetime 20150612-19:13:56
attr experiment General
attr inifile omnetpp.ini
attr iterationvars "$net=abilene, $rep=0, $a=1, $F=spr, $ttl=1000, $D=lce, $R=fifo, $window=60, $variance=0.05, $mytime=1800"
attr iterationvars2 "$net=abilene, $rep=0, $a=1, $F=spr, $ttl=1000, $D=lce, $R=fifo, $window=60, $variance=0.05, $mytime=1800, $repetition=0"
attr measurement "$net=abilene, $rep=0, $a=1, $F=spr, $ttl=1000, $D=lce, $R=fifo, $window=60, $variance=0.05, $mytime=1800"
attr mytime 1800
attr net abilene
attr network networks.${net=abilene}_network
attr processid 490
attr rep 0
attr repetition 0
attr replication #0
attr resultdir results
attr runnumber 2
attr seedset 0
attr ttl 1000
attr variance 0.05
attr window 60

vector 0  abilene_network.node[0].content_store  hit_node[0]  ETV
0	903 774 14659750 14659750 1 25 25 0.057286432160804 0.58792452830189 4.0851770747204 1.0662730176529
vector 1  abilene_network.node[1].content_store  hit_node[1]  ETV
1	1743 777 14659750 14659750 1 25 25 0.050610193826274 0.43543334493561 3.1449386420343 0.6129280927644
vector 2  abilene_network.node[2].content_store  hit_node[2]  ETV
2	2586 782 14659750 14659750 1 25 25 0.031283422459893 0.35856478150333 2.1672032746825 0.32751931389063
vector 3  abilene_network.node[3].content_store  hit_node[3]  ETV
3	3434 783 14659750 14659750 1 25 25 0.024062432256666 0.32610673135233 1.84524028746 0.25571221553056
vector 4  abilene_network.node[4].content_store  hit_node[4]  ETV
4	4283 783 14659750 14659750 1 25 25 0.017787333854574 0.29072355849733 1.6204413653213 0.19966525374052
vector 5  abilene_network.node[5].content_store  hit_node[5]  ETV
5	5132 783 14659750 14659750 1 25 25 0.038720718793454 0.32408614551472 2.3353381498242 0.33199616291297
vector 6  abilene_network.node[6].content_store  hit_node[6]  ETV
6	5981 784 14659750 14659750 1 25 25 0.024678663239075 0.39694353709753 2.2027689785263 0.3715875161951
vector 7  abilene_network.node[7].content_store  hit_node[7]  ETV
7	6831 780 14659750 14659750 1 25 25 0.037091988130564 0.42957877650941 2.6361801022382 0.48535130193558
vector 8  abilene_network.node[8].content_store  hit_node[8]  ETV
8	7677 778 14659750 14659750 1 25 25 0.04851157662624 0.49037199124726 3.2955425299435 0.70561240738791
vector 9  abilene_network.node[9].content_store  hit_node[9]  ETV
9	8521 773 14659750 14659750 1 25 25 0.05668449197861 0.57988386561593 3.9898676843919 1.0317829403135
vector 10  abilene_network.node[10].content_store  hit_node[10]  ETV
10	9363 794 14659750 14659750 1 25 25 0.050537634408602 0.58554387721054 4.0443930849059 1.0562982915002
vector 11  abilene_network.client[0]  hdistance[0]  ETV
11	10213 763 14659750 14659750 1 25 25 1.0700181983621 5.3343558282209 107.44483802152 490.94128929509
vector 12  abilene_network.client[1]  hdistance[1]  ETV
12	11032 760 14659750 14659750 1 25 25 1.6197493148839 4.5335365853658 97.39371604725 392.35238222415
vector 13  abilene_network.client[2]  hdistance[2]  ETV
13	11848 761 14659750 14659750 1 25 25 1.5654522725243 3.65953307393 79.958111289461 262.10538743517
vector 14  abilene_network.client[3]  hdistance[3]  ETV
14	12665 742 14659750 14659750 1 25 25 1.3742992291521 2.7759336099585 61.48137611938 154.2475331489
vector 15  abilene_network.client[4]  hdistance[4]  ETV
15	13463 765 14659750 14659750 1 25 25 0.98283393028741 1.8626262626263 41.239782155248 69.188514162019
vector 16  abilene_network.client[5]  hdistance[5]  ETV
16	14284 780 14659750 14659750 1 25 25 0.60749327261436 0.93476044852192 21.516793469067 18.683089663028
vector 17  abilene_network.client[6]  hdistance[6]  ETV
17	15120 765 14659750 14659750 1 25 25 0.86613310867734 1.8430983118173 40.565723804829 67.247296639266
vector 18  abilene_network.client[7]  hdistance[7]  ETV
18	15941 757 14659750 14659750 1 25 25 1.1055743977737 2.7237237237237 59.676855414722 146.48939839173
vector 19  abilene_network.client[8]  hdistance[8]  ETV
19	16754 765 14659750 14659750 1 25 25 1.1154426782701 3.6299465240642 76.818378550548 245.35696779017
vector 20  abilene_network.client[9]  hdistance[9]  ETV
20	17575 764 14659750 14659750 1 25 25 0.87166361974406 4.4755700325733 91.081960695188 352.85063393511
vector 21  abilene_network.client[10]  hdistance[10]  ETV
21	18397 763 14659750 14659750 1 25 25 1.0785824345146 5.3478735005453 107.95084340601 495.39375595976
