version 2
run General-21-20150311-18:59:43-28976
attr D lcd
attr F spr
attr R lru
attr a 1
attr configname General
attr datetime 20150311-18:59:43
attr experiment General
attr inifile omnetpp.ini
attr iterationvars "$net=abilene, $rep=0, $a=1, $F=spr, $ttl=1000, $D=lcd, $R=lru"
attr iterationvars2 "$net=abilene, $rep=0, $a=1, $F=spr, $ttl=1000, $D=lcd, $R=lru, $repetition=0"
attr measurement "$net=abilene, $rep=0, $a=1, $F=spr, $ttl=1000, $D=lcd, $R=lru"
attr net abilene
attr network networks.${net=abilene}_network
attr processid 28976
attr rep 0
attr repetition 0
attr replication #0
attr resultdir results
attr runnumber 21
attr seedset 0
attr ttl 1000

vector 0  abilene_network.node[0].content_store  hit_node[0]  ETV
0	880665	1	1
0	880665	2	1
0	880665	3	1
0	880665	4	1
0	880665	5	1
0	880665	6	1
0	880665	7	1
0	880665	8	1
0	880665	9	1
0	880665	10	1
0	880665	11	1
0	880665	12	1
0	880665	13	1
0	880665	14	1
0	880665	15	1
0	880665	16	1
0	880665	17	1
0	880665	18	1
0	880665	19	1
0	880665	20	1
0	880665	21	1
0	880665	22	1
0	880665	23	1
0	880665	24	1
0	880665	25	1
0	880665	26	1
0	880665	27	1
0	880665	28	1
0	880665	29	0.6
0	880665	30	1
0	880665	31	1
0	880665	32	1
0	880665	33	0.8
0	880665	34	1
0	880665	35	1
0	880665	36	1
0	880665	37	1
0	880665	38	1
0	880665	39	1
0	880665	40	1
0	880665	41	1
0	880665	42	0.33333333333333
0	880665	43	1
0	880665	44	1
0	880665	45	1
0	880665	46	0.5
0	880665	47	1
0	880665	48	1
0	880665	49	0.5
0	880665	50	1
0	880665	51	1
0	880665	52	1
0	880665	53	1
0	880665	54	0
0	880665	55	0.66666666666667
0	880665	56	-nan
0	880665	57	-nan
0	880665	58	1
0	880665	59	1
0	880665	60	0.66666666666667
0	880665	61	0.5
0	880665	62	0.5
0	880665	63	-nan
0	880665	64	1
0	880665	65	1
0	880665	66	1
0	880665	67	0
0	880665	68	0.5
0	880665	69	1
0	880665	70	1
0	880665	71	0
0	880665	72	1
0	880665	73	0
0	880665	74	0.5
0	880665	75	-nan
0	880665	76	-nan
vector 1  abilene_network.node[1].content_store  hit_node[1]  ETV
1	880665	1	1
1	880665	2	1
1	880665	3	1
1	880665	4	1
1	880665	5	1
1	880665	6	1
1	880665	7	1
1	880665	8	1
1	880665	9	1
1	880665	10	1
1	880665	11	1
1	880665	12	1
1	880665	13	1
1	880665	14	1
1	880665	15	1
1	880665	16	1
1	880665	17	1
1	880665	18	1
1	880665	19	1
1	880665	20	0.5
1	880665	21	1
1	880665	22	1
1	880665	23	0.85714285714286
1	880665	24	1
1	880665	25	1
1	880665	26	0.75
1	880665	27	1
1	880665	28	0.83333333333333
1	880665	29	0.83333333333333
1	880665	30	1
1	880665	31	1
1	880665	32	0.875
1	880665	33	0.5
1	880665	34	1
1	880665	35	0.66666666666667
1	880665	36	1
1	880665	37	0.875
1	880665	38	0.5
1	880665	39	1
1	880665	40	0.8
1	880665	41	0.6
1	880665	42	0.875
1	880665	43	1
1	880665	44	0
1	880665	45	0.85714285714286
1	880665	46	1
1	880665	47	0.8
1	880665	48	0
1	880665	49	1
1	880665	50	0
1	880665	51	0.66666666666667
1	880665	52	0
1	880665	53	1
1	880665	54	0.5
1	880665	55	0.8
1	880665	56	0.33333333333333
1	880665	57	1
1	880665	58	0
1	880665	59	0.6
1	880665	60	1
1	880665	61	0.8
1	880665	62	0.33333333333333
1	880665	63	0.66666666666667
1	880665	64	0
1	880665	65	0.5
1	880665	66	0.5
1	880665	67	0.8
1	880665	68	0.8
1	880665	69	0.2
1	880665	70	0
1	880665	71	0
1	880665	72	0.66666666666667
1	880665	73	0.5
1	880665	74	1
1	880665	75	0
1	880665	76	0.66666666666667
vector 2  abilene_network.node[2].content_store  hit_node[2]  ETV
2	880665	1	1
2	880665	2	1
2	880665	3	1
2	880665	4	1
2	880665	5	1
2	880665	6	1
2	880665	7	1
2	880665	8	1
2	880665	9	1
2	880665	10	1
2	880665	11	1
2	880665	12	1
2	880665	13	1
2	880665	14	1
2	880665	15	1
2	880665	16	1
2	880665	17	1
2	880665	18	1
2	880665	19	1
2	880665	20	1
2	880665	21	0.90909090909091
2	880665	22	1
2	880665	23	1
2	880665	24	0.83333333333333
2	880665	25	0.9
2	880665	26	0.4
2	880665	27	0.875
2	880665	28	1
2	880665	29	1
2	880665	30	1
2	880665	31	0.83333333333333
2	880665	32	1
2	880665	33	0.83333333333333
2	880665	34	1
2	880665	35	1
2	880665	36	1
2	880665	37	0.88888888888889
2	880665	38	0.83333333333333
2	880665	39	0.66666666666667
2	880665	40	0.8
2	880665	41	0.55555555555556
2	880665	42	1
2	880665	43	0.5
2	880665	44	0.4
2	880665	45	0.66666666666667
2	880665	46	0.25
2	880665	47	0.85714285714286
2	880665	48	0.4
2	880665	49	0.625
2	880665	50	1
2	880665	51	0.5
2	880665	52	0
2	880665	53	0.5
2	880665	54	0.375
2	880665	55	0.6
2	880665	56	1
2	880665	57	0.25
2	880665	58	0.8
2	880665	59	0.5
2	880665	60	0
2	880665	61	0.25
2	880665	62	0.4
2	880665	63	1
2	880665	64	0.16666666666667
2	880665	65	0.83333333333333
2	880665	66	0.57142857142857
2	880665	67	1
2	880665	68	0.5
2	880665	69	0.42857142857143
2	880665	70	0
2	880665	71	0
2	880665	72	0.25
2	880665	73	0.25
2	880665	74	0.5
2	880665	75	0.25
2	880665	76	0.33333333333333
vector 3  abilene_network.node[3].content_store  hit_node[3]  ETV
3	880665	1	1
3	880665	2	1
3	880665	3	1
3	880665	4	1
3	880665	5	1
3	880665	6	1
3	880665	7	1
3	880665	8	1
3	880665	9	1
3	880665	10	1
3	880665	11	1
3	880665	12	1
3	880665	13	1
3	880665	14	0.90909090909091
3	880665	15	1
3	880665	16	1
3	880665	17	1
3	880665	18	1
3	880665	19	0.9
3	880665	20	0.85714285714286
3	880665	21	1
3	880665	22	1
3	880665	23	1
3	880665	24	0.75
3	880665	25	1
3	880665	26	0.92307692307692
3	880665	27	1
3	880665	28	1
3	880665	29	1
3	880665	30	0.66666666666667
3	880665	31	1
3	880665	32	0
3	880665	33	0.6
3	880665	34	0.66666666666667
3	880665	35	0.8
3	880665	36	0.71428571428571
3	880665	37	0.66666666666667
3	880665	38	1
3	880665	39	0.83333333333333
3	880665	40	1
3	880665	41	0.6
3	880665	42	0.85714285714286
3	880665	43	0.72727272727273
3	880665	44	0.11111111111111
3	880665	45	0.42857142857143
3	880665	46	0.625
3	880665	47	0.33333333333333
3	880665	48	0.7
3	880665	49	0.375
3	880665	50	0.5
3	880665	51	0.8
3	880665	52	0
3	880665	53	0.57142857142857
3	880665	54	0.2
3	880665	55	0.5
3	880665	56	0.16666666666667
3	880665	57	0
3	880665	58	0.75
3	880665	59	0.33333333333333
3	880665	60	0
3	880665	61	0.4
3	880665	62	0.2
3	880665	63	0
3	880665	64	0.14285714285714
3	880665	65	0.57142857142857
3	880665	66	0.33333333333333
3	880665	67	0
3	880665	68	0.33333333333333
3	880665	69	0.25
3	880665	70	0.42857142857143
3	880665	71	0
3	880665	72	0.5
3	880665	73	0.5
3	880665	74	0
3	880665	75	0.4
3	880665	76	0.33333333333333
vector 4  abilene_network.node[4].content_store  hit_node[4]  ETV
4	880665	1	1
4	880665	2	1
4	880665	3	1
4	880665	4	1
4	880665	5	1
4	880665	6	1
4	880665	7	1
4	880665	8	1
4	880665	9	1
4	880665	10	1
4	880665	11	1
4	880665	12	1
4	880665	13	1
4	880665	14	1
4	880665	15	1
4	880665	16	0.65
4	880665	17	1
4	880665	18	0.25
4	880665	19	0.83333333333333
4	880665	20	1
4	880665	21	0.77777777777778
4	880665	22	0
4	880665	23	0.66666666666667
4	880665	24	0.66666666666667
4	880665	25	0
4	880665	26	0.16666666666667
4	880665	27	1
4	880665	28	0.25
4	880665	29	0.090909090909091
4	880665	30	0.6
4	880665	31	0.46666666666667
4	880665	32	0.33333333333333
4	880665	33	0.5
4	880665	34	0.6
4	880665	35	1
4	880665	36	0.375
4	880665	37	0.57142857142857
4	880665	38	0
4	880665	39	0.85714285714286
4	880665	40	0
4	880665	41	0.72727272727273
4	880665	42	0
4	880665	43	0.75
4	880665	44	0.083333333333333
4	880665	45	0.25
4	880665	46	0.4
4	880665	47	1
4	880665	48	0.57142857142857
4	880665	49	0.27272727272727
4	880665	50	0.5
4	880665	51	1
4	880665	52	0
4	880665	53	0.5
4	880665	54	0.090909090909091
4	880665	55	0.75
4	880665	56	0.33333333333333
4	880665	57	0
4	880665	58	0.66666666666667
4	880665	59	0.25
4	880665	60	0
4	880665	61	0.8
4	880665	62	0.42857142857143
4	880665	63	0
4	880665	64	0.125
4	880665	65	0.5
4	880665	66	0.5
4	880665	67	0
4	880665	68	0
4	880665	69	0.2
4	880665	70	0.33333333333333
4	880665	71	0.083333333333333
4	880665	72	0.5
4	880665	73	0.25
4	880665	74	0
4	880665	75	0.5
4	880665	76	0.33333333333333
vector 5  abilene_network.node[5].content_store  hit_node[5]  ETV
5	880665	1	0.82142857142857
5	880665	2	0.56962025316456
5	880665	3	0.40425531914894
5	880665	4	0.34782608695652
5	880665	5	0.28205128205128
5	880665	6	0.33333333333333
5	880665	7	0.24
5	880665	8	0.375
5	880665	9	0.18181818181818
5	880665	10	0.30434782608696
5	880665	11	0.27272727272727
5	880665	12	0.25
5	880665	13	0.15
5	880665	14	0.055555555555556
5	880665	15	0.11111111111111
5	880665	16	0.125
5	880665	17	0.076923076923077
5	880665	18	0.125
5	880665	19	0.26666666666667
5	880665	20	0
5	880665	21	0.25
5	880665	22	0
5	880665	23	0.125
5	880665	24	0.27272727272727
5	880665	25	0.052631578947368
5	880665	26	0.26666666666667
5	880665	27	0.13333333333333
5	880665	28	0.058823529411765
5	880665	29	0.083333333333333
5	880665	30	0.17647058823529
5	880665	31	0.052631578947368
5	880665	32	0.11111111111111
5	880665	33	0.2
5	880665	34	0.16666666666667
5	880665	35	0.14285714285714
5	880665	36	0.11764705882353
5	880665	37	0.1
5	880665	38	0.1
5	880665	39	0.13333333333333
5	880665	40	0.076923076923077
5	880665	41	0.15384615384615
5	880665	42	0
5	880665	43	0.125
5	880665	44	0.26666666666667
5	880665	45	0.22222222222222
5	880665	46	0.13333333333333
5	880665	47	0.1
5	880665	48	0.125
5	880665	49	0.14285714285714
5	880665	50	0.2
5	880665	51	0.076923076923077
5	880665	52	0.052631578947368
5	880665	53	0.15384615384615
5	880665	54	0.125
5	880665	55	0.15
5	880665	56	0.25
5	880665	57	0.05
5	880665	58	0
5	880665	59	0.2
5	880665	60	0.090909090909091
5	880665	61	0.2
5	880665	62	0.15384615384615
5	880665	63	0.0625
5	880665	64	0.17647058823529
5	880665	65	0.28571428571429
5	880665	66	0
5	880665	67	0.083333333333333
5	880665	68	0
5	880665	69	0.22222222222222
5	880665	70	0.375
5	880665	71	0.15384615384615
5	880665	72	0.22222222222222
5	880665	73	0.083333333333333
5	880665	74	0.045454545454545
5	880665	75	0.25
5	880665	76	0.22222222222222
vector 6  abilene_network.node[6].content_store  hit_node[6]  ETV
6	880665	1	1
6	880665	2	1
6	880665	3	1
6	880665	4	1
6	880665	5	1
6	880665	6	1
6	880665	7	1
6	880665	8	1
6	880665	9	1
6	880665	10	1
6	880665	11	1
6	880665	12	1
6	880665	13	0.86666666666667
6	880665	14	0.69230769230769
6	880665	15	1
6	880665	16	0
6	880665	17	0.28571428571429
6	880665	18	1
6	880665	19	1
6	880665	20	0.6
6	880665	21	1
6	880665	22	1
6	880665	23	1
6	880665	24	0.75
6	880665	25	0.375
6	880665	26	0.71428571428571
6	880665	27	0.4
6	880665	28	0.1
6	880665	29	1
6	880665	30	0.25
6	880665	31	0.5
6	880665	32	0.45454545454545
6	880665	33	0.5
6	880665	34	0
6	880665	35	0.71428571428571
6	880665	36	0
6	880665	37	1
6	880665	38	0.57142857142857
6	880665	39	0.16666666666667
6	880665	40	0.375
6	880665	41	0.22222222222222
6	880665	42	1
6	880665	43	0
6	880665	44	0.75
6	880665	45	0.66666666666667
6	880665	46	0.2
6	880665	47	0
6	880665	48	1
6	880665	49	0
6	880665	50	0.66666666666667
6	880665	51	0.14285714285714
6	880665	52	0
6	880665	53	0.36363636363636
6	880665	54	1
6	880665	55	0
6	880665	56	0.5
6	880665	57	0.66666666666667
6	880665	58	0.8
6	880665	59	0.33333333333333
6	880665	60	1
6	880665	61	0.25
6	880665	62	0
6	880665	63	0.4
6	880665	64	0
6	880665	65	0.125
6	880665	66	1
6	880665	67	0
6	880665	68	0
6	880665	69	0.25
6	880665	70	0.8
6	880665	71	0.83333333333333
6	880665	72	0
6	880665	73	0.28571428571429
6	880665	74	0
6	880665	75	1
6	880665	76	0.25
vector 7  abilene_network.node[7].content_store  hit_node[7]  ETV
7	880665	1	1
7	880665	2	1
7	880665	3	1
7	880665	4	1
7	880665	5	1
7	880665	6	1
7	880665	7	1
7	880665	8	1
7	880665	9	1
7	880665	10	1
7	880665	11	1
7	880665	12	1
7	880665	13	1
7	880665	14	1
7	880665	15	1
7	880665	16	1
7	880665	17	1
7	880665	18	1
7	880665	19	1
7	880665	20	1
7	880665	21	1
7	880665	22	1
7	880665	23	1
7	880665	24	1
7	880665	25	0.33333333333333
7	880665	26	0
7	880665	27	0.33333333333333
7	880665	28	0.4
7	880665	29	0.8
7	880665	30	0.4
7	880665	31	0.4
7	880665	32	0.5
7	880665	33	0.6
7	880665	34	1
7	880665	35	0.5
7	880665	36	1
7	880665	37	0.8
7	880665	38	1
7	880665	39	0
7	880665	40	0
7	880665	41	0.33333333333333
7	880665	42	1
7	880665	43	1
7	880665	44	1
7	880665	45	1
7	880665	46	0.75
7	880665	47	0
7	880665	48	1
7	880665	49	1
7	880665	50	0.75
7	880665	51	0
7	880665	52	0
7	880665	53	0.33333333333333
7	880665	54	1
7	880665	55	0
7	880665	56	0.33333333333333
7	880665	57	0.6
7	880665	58	1
7	880665	59	1
7	880665	60	0.66666666666667
7	880665	61	0.33333333333333
7	880665	62	0
7	880665	63	0.66666666666667
7	880665	64	0
7	880665	65	0.33333333333333
7	880665	66	0.85714285714286
7	880665	67	0
7	880665	68	0
7	880665	69	0
7	880665	70	0
7	880665	71	0.6
7	880665	72	0
7	880665	73	0.33333333333333
7	880665	74	0
7	880665	75	0.66666666666667
7	880665	76	0.6
vector 8  abilene_network.node[8].content_store  hit_node[8]  ETV
8	880665	1	1
8	880665	2	1
8	880665	3	1
8	880665	4	1
8	880665	5	1
8	880665	6	1
8	880665	7	1
8	880665	8	1
8	880665	9	1
8	880665	10	1
8	880665	11	1
8	880665	12	1
8	880665	13	1
8	880665	14	1
8	880665	15	1
8	880665	16	1
8	880665	17	1
8	880665	18	1
8	880665	19	1
8	880665	20	1
8	880665	21	0.8
8	880665	22	1
8	880665	23	1
8	880665	24	1
8	880665	25	1
8	880665	26	1
8	880665	27	0.5
8	880665	28	1
8	880665	29	1
8	880665	30	1
8	880665	31	1
8	880665	32	1
8	880665	33	0
8	880665	34	0.5
8	880665	35	0
8	880665	36	0.5
8	880665	37	0
8	880665	38	1
8	880665	39	0
8	880665	40	0
8	880665	41	0.33333333333333
8	880665	42	0.85714285714286
8	880665	43	0.5
8	880665	44	1
8	880665	45	1
8	880665	46	1
8	880665	47	0
8	880665	48	0.75
8	880665	49	1
8	880665	50	0.75
8	880665	51	0
8	880665	52	1
8	880665	53	0.6
8	880665	54	0.83333333333333
8	880665	55	0.5
8	880665	56	0.66666666666667
8	880665	57	1
8	880665	58	0.66666666666667
8	880665	59	1
8	880665	60	0.66666666666667
8	880665	61	0
8	880665	62	0
8	880665	63	1
8	880665	64	-nan
8	880665	65	0.5
8	880665	66	0.75
8	880665	67	0
8	880665	68	0
8	880665	69	0
8	880665	70	1
8	880665	71	0.33333333333333
8	880665	72	0.66666666666667
8	880665	73	0.5
8	880665	74	1
8	880665	75	0.83333333333333
8	880665	76	0
vector 9  abilene_network.node[9].content_store  hit_node[9]  ETV
9	880665	1	1
9	880665	2	1
9	880665	3	1
9	880665	4	1
9	880665	5	1
9	880665	6	1
9	880665	7	1
9	880665	8	1
9	880665	9	1
9	880665	10	1
9	880665	11	1
9	880665	12	1
9	880665	13	1
9	880665	14	1
9	880665	15	1
9	880665	16	1
9	880665	17	1
9	880665	18	1
9	880665	19	1
9	880665	20	1
9	880665	21	1
9	880665	22	1
9	880665	23	1
9	880665	24	1
9	880665	25	1
9	880665	26	1
9	880665	27	1
9	880665	28	1
9	880665	29	1
9	880665	30	1
9	880665	31	1
9	880665	32	1
9	880665	33	1
9	880665	34	1
9	880665	35	1
9	880665	36	1
9	880665	37	1
9	880665	38	1
9	880665	39	1
9	880665	40	1
9	880665	41	0.4
9	880665	42	0
9	880665	43	1
9	880665	44	0.8
9	880665	45	1
9	880665	46	0.75
9	880665	47	1
9	880665	48	1
9	880665	49	1
9	880665	50	0.75
9	880665	51	-nan
9	880665	52	1
9	880665	53	1
9	880665	54	0.83333333333333
9	880665	55	1
9	880665	56	1
9	880665	57	1
9	880665	58	1
9	880665	59	0
9	880665	60	0.5
9	880665	61	-nan
9	880665	62	1
9	880665	63	1
9	880665	64	-nan
9	880665	65	0.33333333333333
9	880665	66	-nan
9	880665	67	1
9	880665	68	1
9	880665	69	1
9	880665	70	0.66666666666667
9	880665	71	1
9	880665	72	0.66666666666667
9	880665	73	0
9	880665	74	0.5
9	880665	75	0.5
9	880665	76	0
vector 10  abilene_network.node[10].content_store  hit_node[10]  ETV
10	880665	1	1
10	880665	2	1
10	880665	3	1
10	880665	4	1
10	880665	5	1
10	880665	6	1
10	880665	7	1
10	880665	8	1
10	880665	9	1
10	880665	10	1
10	880665	11	1
10	880665	12	1
10	880665	13	1
10	880665	14	1
10	880665	15	1
10	880665	16	1
10	880665	17	1
10	880665	18	1
10	880665	19	1
10	880665	20	1
10	880665	21	1
10	880665	22	1
10	880665	23	1
10	880665	24	1
10	880665	25	0.75
10	880665	26	1
10	880665	27	1
10	880665	28	1
10	880665	29	1
10	880665	30	1
10	880665	31	1
10	880665	32	1
10	880665	33	1
10	880665	34	1
10	880665	35	0.83333333333333
10	880665	36	1
10	880665	37	0.66666666666667
10	880665	38	1
10	880665	39	0.5
10	880665	40	1
10	880665	41	1
10	880665	42	1
10	880665	43	1
10	880665	44	0
10	880665	45	1
10	880665	46	1
10	880665	47	1
10	880665	48	1
10	880665	49	1
10	880665	50	1
10	880665	51	0.75
10	880665	52	1
10	880665	53	1
10	880665	54	1
10	880665	55	1
10	880665	56	1
10	880665	57	0
10	880665	58	0
10	880665	59	0
10	880665	60	-nan
10	880665	61	0
10	880665	62	0
10	880665	63	0.66666666666667
10	880665	64	0.5
10	880665	65	0.6
10	880665	66	0
10	880665	67	1
10	880665	68	0
10	880665	69	0
10	880665	70	-nan
10	880665	71	1
10	880665	72	0.66666666666667
10	880665	73	-nan
10	880665	74	1
10	880665	75	1
10	880665	76	0.6
vector 11  abilene_network.client[0]  hdistance[0]  ETV
11	880665	1	0
11	880665	2	0
11	880665	3	0
11	880665	4	0
11	880665	5	0
11	880665	6	0
11	880665	7	0
11	880665	8	0
11	880665	9	0
11	880665	10	0
11	880665	11	0
11	880665	12	0
11	880665	13	0
11	880665	14	0
11	880665	15	0
11	880665	16	0
11	880665	17	0
11	880665	18	0
11	880665	19	0
11	880665	20	0
11	880665	21	0
11	880665	22	0
11	880665	23	0
11	880665	24	0
11	880665	25	0
11	880665	26	0
11	880665	27	0
11	880665	28	0
11	880665	29	0.6
11	880665	30	0
11	880665	31	0
11	880665	32	0
11	880665	33	0.2
11	880665	34	0
11	880665	35	0
11	880665	36	0
11	880665	37	0
11	880665	38	0
11	880665	39	0
11	880665	40	0
11	880665	41	0
11	880665	42	1
11	880665	43	0
11	880665	44	0
11	880665	45	0
11	880665	46	0.5
11	880665	47	0
11	880665	48	0
11	880665	49	0.5
11	880665	50	0
11	880665	51	0
11	880665	52	0
11	880665	53	0
11	880665	54	1
11	880665	55	0.33333333333333
11	880665	56	0
11	880665	57	0
11	880665	58	0
11	880665	59	0
11	880665	60	0.33333333333333
11	880665	61	0.5
11	880665	62	1.1666666666667
11	880665	63	0
11	880665	64	0
11	880665	65	0
11	880665	66	0
11	880665	67	1.5
11	880665	68	0.5
11	880665	69	0
11	880665	70	0
11	880665	71	5.6666666666667
11	880665	72	0
11	880665	73	1.5
11	880665	74	0.5
11	880665	75	0
11	880665	76	0
vector 12  abilene_network.client[1]  hdistance[1]  ETV
12	880665	1	0
12	880665	2	0
12	880665	3	0
12	880665	4	0
12	880665	5	0
12	880665	6	0
12	880665	7	0
12	880665	8	0
12	880665	9	0
12	880665	10	0
12	880665	11	0
12	880665	12	0
12	880665	13	0
12	880665	14	0
12	880665	15	0
12	880665	16	0
12	880665	17	0
12	880665	18	0
12	880665	19	0
12	880665	20	0.5
12	880665	21	0
12	880665	22	0
12	880665	23	0.14285714285714
12	880665	24	0
12	880665	25	0
12	880665	26	0.5
12	880665	27	0
12	880665	28	0.16666666666667
12	880665	29	0
12	880665	30	0
12	880665	31	0
12	880665	32	0.125
12	880665	33	0.8
12	880665	34	0
12	880665	35	0.5
12	880665	36	0
12	880665	37	0.14285714285714
12	880665	38	0.5
12	880665	39	0
12	880665	40	0.2
12	880665	41	1.2
12	880665	42	0
12	880665	43	0
12	880665	44	2
12	880665	45	0.14285714285714
12	880665	46	0
12	880665	47	0.2
12	880665	48	2.6666666666667
12	880665	49	0
12	880665	50	1
12	880665	51	0.5
12	880665	52	5
12	880665	53	0
12	880665	54	1.6666666666667
12	880665	55	0.5
12	880665	56	0.66666666666667
12	880665	57	0
12	880665	58	0
12	880665	59	0
12	880665	60	0
12	880665	61	0
12	880665	62	2.5
12	880665	63	0.5
12	880665	64	4
12	880665	65	0
12	880665	66	0
12	880665	67	0
12	880665	68	0
12	880665	69	2.3333333333333
12	880665	70	3
12	880665	71	5
12	880665	72	0.5
12	880665	73	1.25
12	880665	74	0
12	880665	75	3
12	880665	76	0
vector 13  abilene_network.client[2]  hdistance[2]  ETV
13	880665	1	0
13	880665	2	0
13	880665	3	0
13	880665	4	0
13	880665	5	0
13	880665	6	0
13	880665	7	0
13	880665	8	0
13	880665	9	0
13	880665	10	0
13	880665	11	0
13	880665	12	0
13	880665	13	0
13	880665	14	0
13	880665	15	0
13	880665	16	0
13	880665	17	0
13	880665	18	0
13	880665	19	0
13	880665	20	0
13	880665	21	0.090909090909091
13	880665	22	0
13	880665	23	0
13	880665	24	0.16666666666667
13	880665	25	0.1
13	880665	26	0.75
13	880665	27	0.125
13	880665	28	0
13	880665	29	0
13	880665	30	0
13	880665	31	0.16666666666667
13	880665	32	0
13	880665	33	0
13	880665	34	0
13	880665	35	0
13	880665	36	0
13	880665	37	0.125
13	880665	38	0.2
13	880665	39	0.33333333333333
13	880665	40	0.25
13	880665	41	1
13	880665	42	0
13	880665	43	1.3333333333333
13	880665	44	1.5
13	880665	45	0.5
13	880665	46	1.5
13	880665	47	0.16666666666667
13	880665	48	0
13	880665	49	0.875
13	880665	50	0
13	880665	51	0.66666666666667
13	880665	52	4
13	880665	53	1.25
13	880665	54	1.8333333333333
13	880665	55	0.25
13	880665	56	0
13	880665	57	3
13	880665	58	0
13	880665	59	1.25
13	880665	60	4
13	880665	61	2
13	880665	62	0
13	880665	63	0
13	880665	64	3
13	880665	65	0.2
13	880665	66	1.1666666666667
13	880665	67	0
13	880665	68	1.8
13	880665	69	1.3333333333333
13	880665	70	3
13	880665	71	4
13	880665	72	2.3333333333333
13	880665	73	4
13	880665	74	1.75
13	880665	75	1
13	880665	76	2
vector 14  abilene_network.client[3]  hdistance[3]  ETV
14	880665	1	0
14	880665	2	0
14	880665	3	0
14	880665	4	0
14	880665	5	0
14	880665	6	0
14	880665	7	0
14	880665	8	0
14	880665	9	0
14	880665	10	0
14	880665	11	0
14	880665	12	0
14	880665	13	0
14	880665	14	0.090909090909091
14	880665	15	0
14	880665	16	0
14	880665	17	0
14	880665	18	0
14	880665	19	0.1
14	880665	20	0.14285714285714
14	880665	21	0
14	880665	22	0
14	880665	23	0
14	880665	24	0.57142857142857
14	880665	25	0
14	880665	26	0
14	880665	27	0
14	880665	28	0
14	880665	29	0
14	880665	30	0.66666666666667
14	880665	31	0
14	880665	32	2.4
14	880665	33	0.75
14	880665	34	0.5
14	880665	35	0.2
14	880665	36	0.57142857142857
14	880665	37	0.5
14	880665	38	0
14	880665	39	0.2
14	880665	40	0
14	880665	41	0.16666666666667
14	880665	42	0.42857142857143
14	880665	43	0.125
14	880665	44	2.5
14	880665	45	1.6666666666667
14	880665	46	0.6
14	880665	47	1
14	880665	48	0.57142857142857
14	880665	49	1.6
14	880665	50	1
14	880665	51	0.33333333333333
14	880665	52	2.6666666666667
14	880665	53	0.6
14	880665	54	2.4
14	880665	55	1
14	880665	56	1.5
14	880665	57	3
14	880665	58	1
14	880665	59	1.3333333333333
14	880665	60	3
14	880665	61	0.5
14	880665	62	2.5
14	880665	63	3
14	880665	64	2.5
14	880665	65	1
14	880665	66	0
14	880665	67	3
14	880665	68	0
14	880665	69	0
14	880665	70	0
14	880665	71	3
14	880665	72	0
14	880665	73	0
14	880665	74	3
14	880665	75	1
14	880665	76	1
vector 15  abilene_network.client[4]  hdistance[4]  ETV
15	880665	1	0
15	880665	2	0
15	880665	3	0
15	880665	4	0
15	880665	5	0
15	880665	6	0
15	880665	7	0
15	880665	8	0
15	880665	9	0
15	880665	10	0
15	880665	11	0
15	880665	12	0
15	880665	13	0
15	880665	14	0
15	880665	15	0
15	880665	16	0.65
15	880665	17	0
15	880665	18	1.25
15	880665	19	0.27272727272727
15	880665	20	0
15	880665	21	0.33333333333333
15	880665	22	2
15	880665	23	0.5
15	880665	24	0.25
15	880665	25	2
15	880665	26	1.8
15	880665	27	0
15	880665	28	1.5
15	880665	29	1.8181818181818
15	880665	30	0.33333333333333
15	880665	31	1
15	880665	32	1
15	880665	33	1
15	880665	34	0.75
15	880665	35	0
15	880665	36	1.1666666666667
15	880665	37	0.83333333333333
15	880665	38	2
15	880665	39	0.33333333333333
15	880665	40	2
15	880665	41	0.14285714285714
15	880665	42	2
15	880665	43	0
15	880665	44	2
15	880665	45	1.25
15	880665	46	1
15	880665	47	0
15	880665	48	0.5
15	880665	49	1.3333333333333
15	880665	50	0.66666666666667
15	880665	51	0
15	880665	52	2
15	880665	53	0.66666666666667
15	880665	54	2
15	880665	55	0
15	880665	56	1.4285714285714
15	880665	57	2
15	880665	58	0
15	880665	59	1.25
15	880665	60	2
15	880665	61	0
15	880665	62	0.66666666666667
15	880665	63	2
15	880665	64	2
15	880665	65	0.66666666666667
15	880665	66	1
15	880665	67	2
15	880665	68	2
15	880665	69	2
15	880665	70	1
15	880665	71	1
15	880665	72	0.75
15	880665	73	2
15	880665	74	2
15	880665	75	0
15	880665	76	1.5
vector 16  abilene_network.client[5]  hdistance[5]  ETV
16	880665	1	0.17857142857143
16	880665	2	0.43037974683544
16	880665	3	0.59574468085106
16	880665	4	0.65217391304348
16	880665	5	0.71794871794872
16	880665	6	0.66666666666667
16	880665	7	0.76
16	880665	8	0.625
16	880665	9	0.81818181818182
16	880665	10	0.69565217391304
16	880665	11	0.72727272727273
16	880665	12	0.75
16	880665	13	0.88888888888889
16	880665	14	1
16	880665	15	0.88888888888889
16	880665	16	0.81818181818182
16	880665	17	0.875
16	880665	18	0.92307692307692
16	880665	19	0.76923076923077
16	880665	20	1
16	880665	21	0.8
16	880665	22	1
16	880665	23	1
16	880665	24	0.85714285714286
16	880665	25	1
16	880665	26	0.66666666666667
16	880665	27	0.88888888888889
16	880665	28	1
16	880665	29	0.85714285714286
16	880665	30	0.88888888888889
16	880665	31	1
16	880665	32	1
16	880665	33	0.83333333333333
16	880665	34	0.6
16	880665	35	1
16	880665	36	0.85714285714286
16	880665	37	1
16	880665	38	1
16	880665	39	0.75
16	880665	40	1
16	880665	41	1
16	880665	42	1
16	880665	43	1
16	880665	44	0.33333333333333
16	880665	45	1
16	880665	46	1
16	880665	47	1
16	880665	48	1
16	880665	49	1
16	880665	50	1
16	880665	51	1
16	880665	52	1
16	880665	53	1
16	880665	54	0.83333333333333
16	880665	55	0.75
16	880665	56	0.83333333333333
16	880665	57	1
16	880665	58	1
16	880665	59	0.5
16	880665	60	0.75
16	880665	61	1
16	880665	62	0.5
16	880665	63	1
16	880665	64	0.83333333333333
16	880665	65	0.5
16	880665	66	1
16	880665	67	0
16	880665	68	0
16	880665	69	1
16	880665	70	0.66666666666667
16	880665	71	1
16	880665	72	1
16	880665	73	1
16	880665	74	1
16	880665	75	1
16	880665	76	1
vector 17  abilene_network.client[6]  hdistance[6]  ETV
17	880665	1	0
17	880665	2	0
17	880665	3	0
17	880665	4	0
17	880665	5	0
17	880665	6	0
17	880665	7	0
17	880665	8	0
17	880665	9	0
17	880665	10	0
17	880665	11	0
17	880665	12	0
17	880665	13	0.2
17	880665	14	0.53846153846154
17	880665	15	0
17	880665	16	2
17	880665	17	1.4285714285714
17	880665	18	0
17	880665	19	0
17	880665	20	0.8
17	880665	21	0
17	880665	22	0
17	880665	23	0
17	880665	24	0.375
17	880665	25	1.1666666666667
17	880665	26	0.41666666666667
17	880665	27	0.83333333333333
17	880665	28	1.8571428571429
17	880665	29	0
17	880665	30	1.4
17	880665	31	0
17	880665	32	0.875
17	880665	33	0.9
17	880665	34	2
17	880665	35	0
17	880665	36	2
17	880665	37	0
17	880665	38	0.71428571428571
17	880665	39	1.5714285714286
17	880665	40	0
17	880665	41	1.3333333333333
17	880665	42	0
17	880665	43	2
17	880665	44	0.25
17	880665	45	0.5
17	880665	46	1.5
17	880665	47	2
17	880665	48	0
17	880665	49	1.75
17	880665	50	1
17	880665	51	2
17	880665	52	2
17	880665	53	1.1428571428571
17	880665	54	0
17	880665	55	2
17	880665	56	0.5
17	880665	57	0.5
17	880665	58	0.4
17	880665	59	1.3333333333333
17	880665	60	0
17	880665	61	1.5
17	880665	62	2
17	880665	63	1.25
17	880665	64	1.5
17	880665	65	2
17	880665	66	0
17	880665	67	0
17	880665	68	2
17	880665	69	2
17	880665	70	0.25
17	880665	71	0.25
17	880665	72	2
17	880665	73	1
17	880665	74	2
17	880665	75	0
17	880665	76	2
vector 18  abilene_network.client[7]  hdistance[7]  ETV
18	880665	1	0
18	880665	2	0
18	880665	3	0
18	880665	4	0
18	880665	5	0
18	880665	6	0
18	880665	7	0
18	880665	8	0
18	880665	9	0
18	880665	10	0
18	880665	11	0
18	880665	12	0
18	880665	13	0
18	880665	14	0
18	880665	15	0
18	880665	16	0
18	880665	17	0
18	880665	18	0
18	880665	19	0
18	880665	20	0
18	880665	21	0
18	880665	22	0
18	880665	23	0
18	880665	24	0
18	880665	25	1.3333333333333
18	880665	26	2
18	880665	27	2
18	880665	28	1.4
18	880665	29	0.2
18	880665	30	1.4
18	880665	31	1.8
18	880665	32	1.1666666666667
18	880665	33	0.75
18	880665	34	0
18	880665	35	0.75
18	880665	36	0
18	880665	37	0
18	880665	38	0
18	880665	39	2.5
18	880665	40	2.4
18	880665	41	1
18	880665	42	0
18	880665	43	0
18	880665	44	0
18	880665	45	0
18	880665	46	0.5
18	880665	47	2.5
18	880665	48	0
18	880665	49	0
18	880665	50	0.33333333333333
18	880665	51	3
18	880665	52	3
18	880665	53	2
18	880665	54	0
18	880665	55	3
18	880665	56	2
18	880665	57	0.6
18	880665	58	0
18	880665	59	0
18	880665	60	0.5
18	880665	61	3
18	880665	62	3
18	880665	63	0.33333333333333
18	880665	64	3
18	880665	65	1.6666666666667
18	880665	66	0.16666666666667
18	880665	67	3
18	880665	68	3
18	880665	69	2
18	880665	70	1
18	880665	71	0.33333333333333
18	880665	72	2.5
18	880665	73	2
18	880665	74	3
18	880665	75	0.5
18	880665	76	0
vector 19  abilene_network.client[8]  hdistance[8]  ETV
19	880665	1	0
19	880665	2	0
19	880665	3	0
19	880665	4	0
19	880665	5	0
19	880665	6	0
19	880665	7	0
19	880665	8	0
19	880665	9	0
19	880665	10	0
19	880665	11	0
19	880665	12	0
19	880665	13	0
19	880665	14	0
19	880665	15	0
19	880665	16	0
19	880665	17	0
19	880665	18	0
19	880665	19	0
19	880665	20	0
19	880665	21	0.2
19	880665	22	0
19	880665	23	0
19	880665	24	0
19	880665	25	0
19	880665	26	0
19	880665	27	0.5
19	880665	28	0
19	880665	29	0
19	880665	30	0
19	880665	31	0
19	880665	32	0
19	880665	33	2
19	880665	34	0.5
19	880665	35	2.5
19	880665	36	0.5
19	880665	37	1.5
19	880665	38	0
19	880665	39	4
19	880665	40	4
19	880665	41	1.8333333333333
19	880665	42	0.16666666666667
19	880665	43	0.5
19	880665	44	0
19	880665	45	0
19	880665	46	0
19	880665	47	4
19	880665	48	0.25
19	880665	49	0
19	880665	50	0.33333333333333
19	880665	51	3
19	880665	52	0
19	880665	53	0.6
19	880665	54	0.2
19	880665	55	2
19	880665	56	0.33333333333333
19	880665	57	0
19	880665	58	0.33333333333333
19	880665	59	0
19	880665	60	0
19	880665	61	1.5
19	880665	62	4
19	880665	63	0
19	880665	64	0
19	880665	65	1.25
19	880665	66	0.25
19	880665	67	4
19	880665	68	4
19	880665	69	3
19	880665	70	0
19	880665	71	1
19	880665	72	2
19	880665	73	0
19	880665	74	0
19	880665	75	0.2
19	880665	76	2
vector 20  abilene_network.client[9]  hdistance[9]  ETV
20	880665	1	0
20	880665	2	0
20	880665	3	0
20	880665	4	0
20	880665	5	0
20	880665	6	0
20	880665	7	0
20	880665	8	0
20	880665	9	0
20	880665	10	0
20	880665	11	0
20	880665	12	0
20	880665	13	0
20	880665	14	0
20	880665	15	0
20	880665	16	0
20	880665	17	0
20	880665	18	0
20	880665	19	0
20	880665	20	0
20	880665	21	0
20	880665	22	0
20	880665	23	0
20	880665	24	0
20	880665	25	0
20	880665	26	0
20	880665	27	0
20	880665	28	0
20	880665	29	0
20	880665	30	0
20	880665	31	0
20	880665	32	0
20	880665	33	0
20	880665	34	0
20	880665	35	0
20	880665	36	0
20	880665	37	0
20	880665	38	0
20	880665	39	0
20	880665	40	0
20	880665	41	2
20	880665	42	1
20	880665	43	0
20	880665	44	0.2
20	880665	45	0
20	880665	46	0.25
20	880665	47	0
20	880665	48	0
20	880665	49	0
20	880665	50	0.25
20	880665	51	0
20	880665	52	0
20	880665	53	0
20	880665	54	0.16666666666667
20	880665	55	0
20	880665	56	0
20	880665	57	0
20	880665	58	0
20	880665	59	1
20	880665	60	0.75
20	880665	61	0
20	880665	62	0
20	880665	63	0
20	880665	64	0
20	880665	65	1.3333333333333
20	880665	66	0
20	880665	67	0
20	880665	68	0
20	880665	69	0
20	880665	70	0.33333333333333
20	880665	71	0
20	880665	72	0.33333333333333
20	880665	73	2.75
20	880665	74	0.5
20	880665	75	0.5
20	880665	76	3
vector 21  abilene_network.client[10]  hdistance[10]  ETV
21	880665	1	0
21	880665	2	0
21	880665	3	0
21	880665	4	0
21	880665	5	0
21	880665	6	0
21	880665	7	0
21	880665	8	0
21	880665	9	0
21	880665	10	0
21	880665	11	0
21	880665	12	0
21	880665	13	0
21	880665	14	0
21	880665	15	0